chemcompute.org
{'UTCtimestamp': '2022-10-04T21:13:54.701242', 'cluster': 'jetstream2', 'clusterJobNumber': '120797', 'status': 'RUNNING', 'nodeList': 'chemcompute-node-0'}
----- GAMESS execution script 'rungms' -----
This job is running on host chemcompute-node-0.novalocal
under operating system Linux at Tue Oct 4 21:13:58 UTC 2022
SLURM has assigned the following compute nodes to this run:
Available scratch disk space (Kbyte units) at beginning of the job is
Filesystem     1K-blocks     Used Available Use% Mounted on
/dev/sda1       62903276 11446456  51456820  19% /
GAMESS temporary binary files will be written to /scratch/120797
GAMESS supplementary output files will be written to /data/slurm/46/460754
Copying input file 460754.inp to your run's scratch directory...
The generated host list is
chemcompute-node-0.novalocal

 Distributed Data Interface kickoff program.
 Initiating 1 compute processes on 1 nodes to run the following command:
 /data/gamess-2019R1-avx2-ddi/gamess.00.x 460754 

          ******************************************************
          *         GAMESS VERSION = 30 JUN 2019 (R1)          *
          *             FROM IOWA STATE UNIVERSITY             *
          * M.W.SCHMIDT, K.K.BALDRIDGE, J.A.BOATZ, S.T.ELBERT, *
          *   M.S.GORDON, J.H.JENSEN, S.KOSEKI, N.MATSUNAGA,   *
          *          K.A.NGUYEN, S.J.SU, T.L.WINDUS,           *
          *       TOGETHER WITH M.DUPUIS, J.A.MONTGOMERY       *
          *         J.COMPUT.CHEM.  14, 1347-1363(1993)        *
          **************** 64 BIT INTEL VERSION ****************

  SINCE 1993, STUDENTS AND POSTDOCS WORKING AT IOWA STATE UNIVERSITY
  AND ALSO IN THEIR VARIOUS JOBS AFTER LEAVING ISU HAVE MADE IMPORTANT
  CONTRIBUTIONS TO THE CODE:
     IVANA ADAMOVIC, CHRISTINE AIKENS, YURI ALEXEEV, POOJA ARORA,
     ANDREY ASADCHEV, ROB BELL, PRADIPTA BANDYOPADHYAY, JONATHAN BENTZ,
     COLLEEN BERTONI, BRETT BODE, KURT BRORSEN, CALEB CARLIN, GALINA CHABAN,
     WEI CHEN, CHEOL HO CHOI, PAUL DAY, ALBERT DEFUSCO, NUWAN DESILVA,
     TIM DUDLEY, DMITRI FEDOROV, ALEX FINDLATER, GRAHAM FLETCHER, 
     MARK FREITAG, KURT GLAESEMANN, ANASTASIA GUNINA,
     DAN KEMP, GRANT MERRILL, NORIYUKI MINEZAWA, JONATHAN MULLIN,
     TAKESHI NAGATA, SEAN NEDD, HEATHER NETZLOFF, BOSILJKA NJEGIC, RYAN OLSON,
     MIKE PAK, BUU PHAM,
     SPENCER PRUITT, LUKE ROSKOP, JIM SHOEMAKER, LYUDMILA SLIPCHENKO,
     TONY SMITH, SAROM SOK LEANG, JIE SONG, TETSUYA TAKETSUGU, SIMON WEBB,
     PENG XU, SOOHAENG YOO, FEDERICO ZAHARIEV

  ADDITIONAL CODE HAS BEEN PROVIDED BY COLLABORATORS IN OTHER GROUPS:
     IOWA STATE UNIVERSITY:
          JOE IVANIC, AARON WEST, LAIMUTIS BYTAUTAS, KLAUS RUEDENBERG
     UNIVERSITY OF TOKYO: KIMIHIKO HIRAO, TAKAHITO NAKAJIMA,
          TAKAO TSUNEDA, MUNEAKI KAMIYA, SUSUMU YANAGISAWA,
          KIYOSHI YAGI, MAHITO CHIBA, SEIKEN TOKURA, NAOAKI KAWAKAMI
     UNIVERSITY OF AARHUS: FRANK JENSEN
     UNIVERSITY OF IOWA: VISVALDAS KAIRYS, HUI LI
     NATIONAL INST. OF STANDARDS AND TECHNOLOGY: WALT STEVENS, DAVID GARMER
     UNIVERSITY OF PISA: BENEDETTA MENNUCCI, JACOPO TOMASI
     UNIVERSITY OF MEMPHIS: HENRY KURTZ, PRAKASHAN KORAMBATH
     UNIVERSITY OF ALBERTA: TOBY ZENG, MARIUSZ KLOBUKOWSKI
     UNIVERSITY OF NEW ENGLAND: MARK SPACKMAN
     MIE UNIVERSITY: HIROAKI UMEDA
     NAT. INST. OF ADVANCED INDUSTRIAL SCIENCE AND TECHNOLOGY: KAZUO KITAURA
     MICHIGAN STATE UNIVERSITY:
          KAROL KOWALSKI, MARTA WLOCH, JEFFREY GOUR, JESSE LUTZ,
          WEI LI, JUN SHEN, J. EMILIANO DEUSTUA, PIOTR PIECUCH
     UNIVERSITY OF MINNESOTA:
          YINAN SHU
     UNIVERSITY OF SILESIA: MONIKA MUSIAL, STANISLAW KUCHARSKI
     FACULTES UNIVERSITAIRES NOTRE-DAME DE LA PAIX:
          OLIVIER QUINET, BENOIT CHAMPAGNE
     UNIVERSITY OF CALIFORNIA - SANTA BARBARA: BERNARD KIRTMAN
     INSTITUTE FOR MOLECULAR SCIENCE:
          KAZUYA ISHIMURA, MICHIO KATOUDA, AND SHIGERU NAGASE
     UNIVERSITY OF NOTRE DAME: ANNA POMOGAEVA, DAN CHIPMAN
     KYUSHU UNIVERSITY:
          HARUYUKI NAKANO,
          FENG LONG GU, JACEK KORCHOWIEC, MARCIN MAKOWSKI, AND YURIKO AOKI,
          HIROTOSHI MORI AND EISAKU MIYOSHI
     PENNSYLVANIA STATE UNIVERSITY:
          TZVETELIN IORDANOV, CHET SWALINA, JONATHAN SKONE,
          SHARON HAMMES-SCHIFFER
     WASEDA UNIVERSITY:
          MASATO KOBAYASHI, TOMOKO AKAMA, TSUGUKI TOUMA,
          TAKESHI YOSHIKAWA, YASUHIRO IKABATA, JUNJI SEINO,
          YUYA NAKAJIMA, HIROMI NAKAI
     NANJING UNIVERSITY: SHUHUA LI
     UNIVERSITY OF NEBRASKA:
          PEIFENG SU, DEJUN SI, NANDUN THELLAMUREGE, YALI WANG, HUI LI
     UNIVERSITY OF ZURICH: ROBERTO PEVERATI, KIM BALDRIDGE
     N. COPERNICUS UNIVERSITY AND JACKSON STATE UNIVERSITY:
          MARIA BARYSZ
     UNIVERSITY OF COPENHAGEN: Jimmy Kromann, CASPER STEINMANN
     TOKYO INSTITUTE OF TECHNOLOGY: HIROYA NAKATA
     NAGOYA UNIVERSITY: YOSHIO NISHIMOTO, STEPHAN IRLE
     MOSCOW STATE UNIVERSITY: VLADIMIR MIRONOV
     A.N.NESMEYANOV INSTITUTE OF ORGANOELEMENT COMPOUNDS OF RUSSIAN ACADEMY OF SCIENCES:
          IGOR S. GERASIMOV

 EXECUTION OF GAMESS BEGUN Tue Oct  4 21:13:58 2022

            ECHO OF THE FIRST FEW INPUT CARDS -
 INPUT CARD>!                                                                               
 INPUT CARD>!   GAMESS Calculation input file                                               
 INPUT CARD>!   molecula de prueba                                                          
 INPUT CARD>!                                                                               
 INPUT CARD> $CONTRL SCFTYP=RHF MAXIT=200 RUNTYP=OPTIMIZE                                   
 INPUT CARD>         COORD=UNIQUE MULT=1                                                    
 INPUT CARD>         ICHARG=0                                                               
 INPUT CARD>         DFTTYP=B3LYP                                                           
 INPUT CARD>         MOLPLT=.FALSE. PLTORB=.FALSE.  $END                                    
 INPUT CARD> $SYSTEM TIMLIM=2879 MWORDS=250  $END                                           
 INPUT CARD>                                                                                
 INPUT CARD> $FORCE METHOD=SEMINUM NVIB=2 $END                                              
 INPUT CARD> $STATPT OPTTOL=0.0005 NSTEP=999 $END                                           
 INPUT CARD> $STATPT IHREP=0 HSSEND=.TRUE.  $END                                            
 INPUT CARD>                                                                                
 INPUT CARD> $DFT    METHOD=GRID  NLEB=590  $END                                            
 INPUT CARD>                                                                                
 INPUT CARD> $BASIS  GBASIS=N31 NGAUSS=6                                                    
 INPUT CARD>         NDFUNC=1   NPFUNC=0  $END                                              
 INPUT CARD>                                                                                
 INPUT CARD> $SCF    DIRSCF=.T. $END                                                        
 INPUT CARD> $GUESS  GUESS=HUCKEL  $END                                                     
 INPUT CARD>                                                                                
 INPUT CARD> $DATA                                                                          
 INPUT CARD>   molecula de prueba                                                           
 INPUT CARD>  C1                                                                            
 INPUT CARD>O     8.0    -1.64299     0.44643     0.17271                                   
 INPUT CARD>C     6.0    -0.66800    -0.24879    -0.05430                                   
 INPUT CARD>C     6.0     0.70870     0.30424    -0.04812                                   
 INPUT CARD>C     6.0     1.77123    -0.51235    -0.08897                                   
 INPUT CARD>H     1.0    -0.75377    -1.32958    -0.26835                                   
 INPUT CARD>H     1.0     0.80001     1.38609     0.00248                                   
 INPUT CARD>H     1.0     1.67506    -1.59516    -0.11811                                   
 INPUT CARD>H     1.0     2.77974    -0.10631    -0.07825                                   
 INPUT CARD> $END                                                                           
 INPUT CARD>                                                                                
 INPUT CARD>                                                                                
 INPUT CARD>! Customizations after this line are persisted when using Do More Calculations  
  250000000 WORDS OF MEMORY AVAILABLE

     BASIS OPTIONS
     -------------
     GBASIS=N31          IGAUSS=       6      POLAR=POPN31  
     NDFUNC=       1     NFFUNC=       0     DIFFSP=       F
     NPFUNC=       0      DIFFS=       F     BASNAM=        


     RUN TITLE
     ---------
    molecula de prueba                                                           

 THE POINT GROUP OF THE MOLECULE IS C1      
 THE ORDER OF THE PRINCIPAL AXIS IS     0

 ATOM      ATOMIC                      COORDINATES (BOHR)
           CHARGE         X                   Y                   Z
 O           8.0    -3.1048009006        0.8436303727        0.3263745753
 C           6.0    -1.2623369598       -0.4701449285       -0.1026121211
 C           6.0     1.3392488075        0.5749302345       -0.0909336145
 C           6.0     3.3471393612       -0.9682011098       -0.1681289211
 H           1.0    -1.4244187578       -2.5125418788       -0.5071079688
 H           1.0     1.5117996874        2.6193302943        0.0046865204
 H           1.0     3.1654044130       -3.0144153066       -0.2231955364
 H           1.0     5.2529469171       -0.2008967698       -0.1478710585

          INTERNUCLEAR DISTANCES (ANGS.)
          ------------------------------

                1 O          2 C          3 C          4 C          5 H     

   1 O       0.0000000    1.2187985 *  2.3663114 *  3.5559294    2.0345657 *
   2 C       1.2187985 *  0.0000000    1.4836385 *  2.4536725 *  1.1051158 *
   3 C       2.3663114 *  1.4836385 *  0.0000000    1.3406931 *  2.2037894 *
   4 C       3.5559294    2.4536725 *  1.3406931 *  0.0000000    2.6600126 *
   5 H       2.0345657 *  1.1051158 *  2.2037894 *  2.6600126 *  0.0000000  
   6 H       2.6230113 *  2.1979786 *  1.0868750 *  2.1344099 *  3.1404529  
   7 H       3.9066766    2.7030934 *  2.1322454 *  1.0874628 *  2.4479216 *
   8 H       4.4641957    3.4507659    2.1115553 *  1.0872331 *  3.7440914  

                6 H          7 H          8 H     

   1 O       2.6230113 *  3.9066766    4.4641957  
   2 C       2.1979786 *  2.7030934 *  3.4507659  
   3 C       1.0868750 *  2.1322454 *  2.1115553 *
   4 C       2.1344099 *  1.0874628 *  1.0872331 *
   5 H       3.1404529    2.4479216 *  3.7440914  
   6 H       0.0000000    3.1093578    2.4805455 *
   7 H       3.1093578    0.0000000    1.8543411 *
   8 H       2.4805455 *  1.8543411 *  0.0000000  

  * ... LESS THAN  3.000


     ATOMIC BASIS SET
     ----------------
 THE CONTRACTED PRIMITIVE FUNCTIONS HAVE BEEN UNNORMALIZED
 THE CONTRACTED BASIS FUNCTIONS ARE NOW NORMALIZED TO UNITY

  SHELL TYPE  PRIMITIVE        EXPONENT          CONTRACTION COEFFICIENT(S)

 O         

      1   S       1          5484.6716600    0.001831074430
      1   S       2           825.2349460    0.013950172200
      1   S       3           188.0469580    0.068445078098
      1   S       4            52.9645000    0.232714335992
      1   S       5            16.8975704    0.470192897984
      1   S       6             5.7996353    0.358520852987

      2   L       7            15.5396162   -0.110777549525    0.070874268231
      2   L       8             3.5999336   -0.148026262701    0.339752839147
      2   L       9             1.0137618    1.130767015354    0.727158577316

      3   L      10             0.2700058    1.000000000000    1.000000000000

      4   D      11             0.8000000    1.000000000000

 C         

      5   S      12          3047.5248800    0.001834737132
      5   S      13           457.3695180    0.014037322813
      5   S      14           103.9486850    0.068842622264
      5   S      15            29.2101553    0.232184443216
      5   S      16             9.2866630    0.467941348435
      5   S      17             3.1639270    0.362311985337

      6   L      18             7.8682723   -0.119332419775    0.068999066591
      6   L      19             1.8812885   -0.160854151696    0.316423960957
      6   L      20             0.5442493    1.143456437840    0.744308290898

      7   L      21             0.1687145    1.000000000000    1.000000000000

      8   D      22             0.8000000    1.000000000000

 C         

      9   S      23          3047.5248800    0.001834737132
      9   S      24           457.3695180    0.014037322813
      9   S      25           103.9486850    0.068842622264
      9   S      26            29.2101553    0.232184443216
      9   S      27             9.2866630    0.467941348435
      9   S      28             3.1639270    0.362311985337

     10   L      29             7.8682723   -0.119332419775    0.068999066591
     10   L      30             1.8812885   -0.160854151696    0.316423960957
     10   L      31             0.5442493    1.143456437840    0.744308290898

     11   L      32             0.1687145    1.000000000000    1.000000000000

     12   D      33             0.8000000    1.000000000000

 C         

     13   S      34          3047.5248800    0.001834737132
     13   S      35           457.3695180    0.014037322813
     13   S      36           103.9486850    0.068842622264
     13   S      37            29.2101553    0.232184443216
     13   S      38             9.2866630    0.467941348435
     13   S      39             3.1639270    0.362311985337

     14   L      40             7.8682723   -0.119332419775    0.068999066591
     14   L      41             1.8812885   -0.160854151696    0.316423960957
     14   L      42             0.5442493    1.143456437840    0.744308290898

     15   L      43             0.1687145    1.000000000000    1.000000000000

     16   D      44             0.8000000    1.000000000000

 H         

     17   S      45            18.7311370    0.033494604338
     17   S      46             2.8253944    0.234726953484
     17   S      47             0.6401217    0.813757326146

     18   S      48             0.1612778    1.000000000000

 H         

     19   S      49            18.7311370    0.033494604338
     19   S      50             2.8253944    0.234726953484
     19   S      51             0.6401217    0.813757326146

     20   S      52             0.1612778    1.000000000000

 H         

     21   S      53            18.7311370    0.033494604338
     21   S      54             2.8253944    0.234726953484
     21   S      55             0.6401217    0.813757326146

     22   S      56             0.1612778    1.000000000000

 H         

     23   S      57            18.7311370    0.033494604338
     23   S      58             2.8253944    0.234726953484
     23   S      59             0.6401217    0.813757326146

     24   S      60             0.1612778    1.000000000000

 TOTAL NUMBER OF BASIS SET SHELLS             =   24
 NUMBER OF CARTESIAN GAUSSIAN BASIS FUNCTIONS =   68
 NUMBER OF ELECTRONS                          =   30
 CHARGE OF MOLECULE                           =    0
 SPIN MULTIPLICITY                            =    1
 NUMBER OF OCCUPIED ORBITALS (ALPHA)          =   15
 NUMBER OF OCCUPIED ORBITALS (BETA )          =   15
 TOTAL NUMBER OF ATOMS                        =    8
 THE NUCLEAR REPULSION ENERGY IS      102.7414594007

 SELECTED MURRAY-HANDY-LAMING RADIAL GRID

 LEGACY BECKE'S FUZZY CELL METHOD

 SELECTED ORIGINAL BECKE'S PARTITION FUNCTION

     LEBEDEV GRID-BASED DFT OPTIONS
     ------------------------------
     DFTTYP=B3LYP   
     NRAD  =      96     NLEB  =     590
     NRAD0 =      24     NLEB0 =     110
     SWOFF =    5.00E-03 (PURE SCF -> DFT)
     SWITCH=    3.00E-04 (COARSE -> TIGHT GRID)
     THRESH=    0.00E+00 GTHRE=    1.00E+00

 GRIMME'S EMPIRICAL DISPERSION CORRECTION= F

     $CONTRL OPTIONS
     ---------------
 SCFTYP=RHF          RUNTYP=OPTIMIZE     EXETYP=RUN     
 MPLEVL=       0     CITYP =NONE         CCTYP =NONE         VBTYP =NONE    
 DFTTYP=B3LYP        TDDFT =NONE    
 MULT  =       1     ICHARG=       0     NZVAR =       0     COORD =UNIQUE  
 PP    =NONE         RELWFN=NONE         LOCAL =NONE         NUMGRD=       F
 ISPHER=      -1     NOSYM =       0     MAXIT =     200     UNITS =ANGS    
 PLTORB=       F     MOLPLT=       F     AIMPAC=       F     FRIEND=        
 NPRINT=       7     IREST =       0     GEOM  =INPUT   
 NORMF =       0     NORMP =       0     ITOL  =      20     ICUT  =       9
 INTTYP=BEST         GRDTYP=BEST         QMTTOL= 1.0E-06

     $SYSTEM OPTIONS
     ---------------
  REPLICATED MEMORY=   250000000 WORDS (ON EVERY NODE).
 DISTRIBUTED MEMDDI=           0 MILLION WORDS IN AGGREGATE,
 MEMDDI DISTRIBUTED OVER   1 PROCESSORS IS           0 WORDS/PROCESSOR.
 TOTAL MEMORY REQUESTED ON EACH PROCESSOR=   250000000 WORDS.
 TIMLIM=        2879.00 MINUTES, OR       2.0 DAYS.
 PARALL= F  BALTYP=  DLB     KDIAG=    0  COREFL= F
 MXSEQ2=     300 MXSEQ3=     150  mem10=         0

          ----------------
          PROPERTIES INPUT
          ----------------

     MOMENTS            FIELD           POTENTIAL          DENSITY
 IEMOM =       1   IEFLD =       0   IEPOT =       0   IEDEN =       0
 WHERE =COMASS     WHERE =NUCLEI     WHERE =NUCLEI     WHERE =NUCLEI  
 OUTPUT=BOTH       OUTPUT=BOTH       OUTPUT=BOTH       OUTPUT=BOTH    
 IEMINT=       0   IEFINT=       0                     IEDINT=       0
                                                       MORB  =       0
          EXTRAPOLATION IN EFFECT
          DIIS IN EFFECT
 ORBITAL PRINTING OPTION: NPREO=     1    68     2     1

     -------------------------------
     INTEGRAL TRANSFORMATION OPTIONS
     -------------------------------
     NWORD  =            0
     CUTOFF = 1.0E-09     MPTRAN =       0
     DIRTRF =       T     AOINTS =DUP     

          ----------------------
          INTEGRAL INPUT OPTIONS
          ----------------------
 NOPK  =       1 NORDER=       0 SCHWRZ=       T

     ------------------------------------------
     THE POINT GROUP IS C1 , NAXIS= 0, ORDER= 1
     ------------------------------------------

     DIMENSIONS OF THE SYMMETRY SUBSPACES ARE
 A   =   68

 ..... DONE SETTING UP THE RUN .....
 STEP CPU TIME =     0.01 TOTAL CPU TIME =          0.0 (      0.0 MIN)
 TOTAL WALL CLOCK TIME=          0.0 SECONDS, CPU UTILIZATION IS    50.00%


          -----------------------------
          STATIONARY POINT LOCATION RUN
          -----------------------------

 OBTAINING INITIAL HESSIAN, HESS=GUESS   
 CARTESIAN COORDINATE OPTIMIZATION USING BADGER'S RULE FORCE CONSTANT GUESS

          PARAMETERS CONTROLLING GEOMETRY SEARCH ARE
          METHOD =QA                  UPHESS =BFGS    
          NNEG   =         0          NFRZ   =         0
          NSTEP  =       999          IFOLOW =         1
          HESS   =GUESS               RESTAR =         F
          IHREP  =         0          HSSEND =         T
          NPRT   =         0          NPUN   =         0
          OPTTOL = 5.000E-04          RMIN   = 1.500E-03
          RMAX   = 1.000E-01          RLIM   = 7.000E-02
          DXMAX  = 3.000E-01          PURIFY =         F
          MOVIE  =         F          TRUPD  =         T
          TRMAX  = 5.000E-01          TRMIN  = 5.000E-02
          ITBMAT =         5          STPT   =         F
          STSTEP = 1.000E-02          PROJCT=          T

 BEGINNING GEOMETRY SEARCH POINT NSERCH=   0 ...

 COORDINATES OF ALL ATOMS ARE (ANGS)
   ATOM   CHARGE       X              Y              Z
 ------------------------------------------------------------
 O           8.0  -1.6429900000   0.4464300000   0.1727100000
 C           6.0  -0.6680000000  -0.2487900000  -0.0543000000
 C           6.0   0.7087000000   0.3042400000  -0.0481200000
 C           6.0   1.7712300000  -0.5123500000  -0.0889700000
 H           1.0  -0.7537700000  -1.3295800000  -0.2683500000
 H           1.0   0.8000100000   1.3860900000   0.0024800000
 H           1.0   1.6750600000  -1.5951600000  -0.1181100000
 H           1.0   2.7797400000  -0.1063100000  -0.0782500000

          ********************
          1 ELECTRON INTEGRALS
          ********************
 ...... END OF ONE-ELECTRON INTEGRALS ......
 STEP CPU TIME =     0.00 TOTAL CPU TIME =          0.0 (      0.0 MIN)
 TOTAL WALL CLOCK TIME=          0.0 SECONDS, CPU UTILIZATION IS    33.33%

          -------------
          GUESS OPTIONS
          -------------
          GUESS =HUCKEL            NORB  =       0          NORDER=       0
          MIX   =       F          PRTMO =       F          PUNMO =       F
          TOLZ  = 1.0E-08          TOLE  = 1.0E-05
          SYMDEN=       F          PURIFY=       F

 INITIAL GUESS ORBITALS GENERATED BY HUCKEL   ROUTINE.
 HUCKEL GUESS REQUIRES     42032 WORDS.

 SYMMETRIES FOR INITIAL GUESS ORBITALS FOLLOW.   BOTH SET(S).
    15 ORBITALS ARE OCCUPIED (    4 CORE ORBITALS).
     5=A        6=A        7=A        8=A        9=A       10=A       11=A   
    12=A       13=A       14=A       15=A       16=A       17=A       18=A   
    19=A       20=A       21=A       22=A       23=A       24=A       25=A   
 ...... END OF INITIAL ORBITAL SELECTION ......
 STEP CPU TIME =     0.02 TOTAL CPU TIME =          0.0 (      0.0 MIN)
 TOTAL WALL CLOCK TIME=          0.0 SECONDS, CPU UTILIZATION IS    60.00%

                    ----------------------
                    AO INTEGRAL TECHNOLOGY
                    ----------------------
     S,P,L SHELL ROTATED AXIS INTEGRALS, REPROGRAMMED BY
        KAZUYA ISHIMURA (IMS) AND JOSE SIERRA (SYNSTAR).
     S,P,D,L SHELL ROTATED AXIS INTEGRALS PROGRAMMED BY
        KAZUYA ISHIMURA (INSTITUTE FOR MOLECULAR SCIENCE).
     S,P,D,F,G SHELL TO TOTAL QUARTET ANGULAR MOMENTUM SUM 5,
        ERIC PROGRAM BY GRAHAM FLETCHER (ELORET AND NASA ADVANCED
        SUPERCOMPUTING DIVISION, AMES RESEARCH CENTER).
     S,P,D,F,G,L SHELL GENERAL RYS QUADRATURE PROGRAMMED BY
        MICHEL DUPUIS (PACIFIC NORTHWEST NATIONAL LABORATORY).

          --------------------
          2 ELECTRON INTEGRALS
          --------------------

 DIRECT SCF METHOD SKIPS INTEGRAL STORAGE ON DISK.
 DIRECT TRANSFORMATION SKIPS AO INTEGRAL STORAGE ON DISK.
  ...... END OF TWO-ELECTRON INTEGRALS .....
 STEP CPU TIME =     0.00 TOTAL CPU TIME =          0.0 (      0.0 MIN)
 TOTAL WALL CLOCK TIME=          0.1 SECONDS, CPU UTILIZATION IS    50.00%

          --------------------------
             R-B3LYP SCF CALCULATION
          --------------------------

     NUCLEAR ENERGY =       102.7414594007
     MAXIT =  200     NPUNCH=    2
     EXTRAP=T  DAMP=F  SHIFT=F  RSTRCT=F  DIIS=T  DEM=F  SOSCF=F
         DENSITY MATRIX CONVERGENCE THRESHOLD=  2.00E-05
     COARSE -> FINE DFT GRID SWITCH THRESHOLD=  3.00E-04 (SWITCH IN $DFT)
                   HF -> DFT SWITCH THRESHOLD=  5.00E-03 (SWOFF IN $DFT)
     MEMORY REQUIRED FOR RHF ITERS=    620217 WORDS.

 DIRECT SCF CALCULATION, SCHWRZ=T   FDIFF=T,  DIRTHR=  0.00E+00 NITDIR=10
 SCHWARZ INEQUALITY OVERHEAD:      2343 INTEGRALS, T=        0.00

 DFT CODE IS SWITCHING FROM THE FINE GRID NRAD= 96,  NLEB=  590
                      TO THE COARSE GRID NRAD0= 24, NLEB0=  110

     EXCHANGE FUNCTIONAL   =B88&HFX   
     CORRELATION FUNCTIONAL=LYP88&VWN5
     DFT THRESHOLD         =.883E-08
     GRID CHANGE THRESHOLD =.300E-03
 FOR AN EULER-MACLAURIN QUADRATURE USING  96 RADIAL POINTS:
 SMALLEST GAUSSIAN PRIMITIVE EXPONENT=        0.1612777588 OF TYPE -S-
 ON ATOM NUMBER   5 HAS RADIAL NORMALIZATION=  1.000000
  LARGEST GAUSSIAN PRIMITIVE EXPONENT=     5484.6716600000 OF TYPE -S-
 ON ATOM NUMBER   1 HAS RADIAL NORMALIZATION=  1.000000
 DFT IS SWITCHED OFF, PERFORMING PURE SCF UNTIL SWOFF THRESHOLD IS REACHED.

                                                                                   NONZERO     BLOCKS
 ITER EX DEM     TOTAL ENERGY        E CHANGE  DENSITY CHANGE    DIIS ERROR      INTEGRALS    SKIPPED
   1  0  0     -190.2063556799  -190.2063556799   0.301245468   0.698652247        2555509       4231
          * * *   INITIATING DIIS PROCEDURE   * * *
   2  1  0     -190.6971727206    -0.4908170407   0.151452263   0.100761127        2555278       4521
   3  2  0     -190.7303610201    -0.0331882995   0.077816735   0.100691711        2552350       4912
   4  3  0     -190.7584903826    -0.0281293625   0.014522122   0.008086970        2547606       5307
   5  4  0     -190.7591769595    -0.0006865769   0.006459796   0.003764435        2534052       5901
   6  5  0     -190.7592613386    -0.0000843791   0.002696172   0.000961892        2514444       6629
 CONVERGED TO SWOFF, SO DFT CALCULATION IS NOW SWITCHED ON.
          * * *   INITIATING DIIS PROCEDURE   * * *
   7  6  0     -191.7801218768    -1.0208605382   0.116487076   0.076714792        2555701       4247
   8  7  0     -191.7976759201    -0.0175540433   0.070019123   0.028995660        2553054       4818
   9  8  0     -191.7926630144     0.0050129057   0.056028440   0.042318887        2548153       5211
  10  9  0     -191.8019160187    -0.0092530043   0.009638412   0.011543859        2542766       5485
  11 10  0     -191.8022389167    -0.0003228980   0.001468673   0.000934272        2522989       6211
  12 11  0     -191.8022406104    -0.0000016938   0.000815477   0.000509517        2473519       7632
  13 12  0     -191.8022427331    -0.0000021227   0.000075392   0.000059188        2425952       8880
 DFT CODE IS SWITCHING BACK TO THE FINE GRID
          * * *   INITIATING DIIS PROCEDURE   * * *
  14 13  0     -191.8002764926     0.0019662405   0.002295612   0.001555426        2555806       4212
  15 14  0     -191.8002855141    -0.0000090215   0.000857172   0.000245799        2506348       6849
  16 15  0     -191.8002850182     0.0000004959   0.000540547   0.000499059        2436300       8864
  17 16  0     -191.8002858644    -0.0000008463   0.000112415   0.000067431        2413018       9505
  18 17  0     -191.8002858788    -0.0000000143   0.000038316   0.000037266        2355406      10527
  19 18  0     -191.8002858840    -0.0000000052   0.000011813   0.000006108        2301010      11753
  20 19  0     -191.8002858842    -0.0000000001   0.000005573   0.000003955        2209924      14023

          -----------------
          DENSITY CONVERGED
          -----------------
     TIME TO FORM FOCK OPERATORS=       9.5 SECONDS (       0.5 SEC/ITER)
     FOCK TIME ON FIRST ITERATION=       0.1, LAST ITERATION=       1.1
     TIME TO SOLVE SCF EQUATIONS=       0.1 SECONDS (       0.0 SEC/ITER)

 FINAL R-B3LYP ENERGY IS     -191.8002858842 AFTER  20 ITERATIONS
 DFT EXCHANGE + CORRELATION ENERGY =       -21.1466338578
 TOTAL ELECTRON NUMBER             =        30.0000112825

          ------------
          EIGENVECTORS
          ------------

                      1          2          3          4          5
                  -19.1439   -10.2742   -10.2162   -10.2071    -1.0370
                     A          A          A          A          A   
    1  O  1  S    0.992762  -0.000137  -0.000035   0.000020  -0.194674
    2  O  1  S    0.025697   0.000395  -0.000155   0.000052   0.425171
    3  O  1  X    0.000927  -0.000049  -0.000013   0.000024   0.130634
    4  O  1  Y   -0.000673   0.000015  -0.000001   0.000002  -0.091468
    5  O  1  Z   -0.000218   0.000002   0.000008  -0.000015  -0.030138
    6  O  1  S    0.013775  -0.002872   0.000881  -0.000645   0.398209
    7  O  1  X    0.001362  -0.001517   0.000241  -0.000327   0.047062
    8  O  1  Y   -0.000840   0.001215  -0.000058  -0.000061  -0.028932
    9  O  1  Z   -0.000307   0.000407  -0.000056   0.000045  -0.010381
   10  O  1 XX   -0.007734  -0.000113  -0.000059   0.000087   0.003275
   11  O  1 YY   -0.007944   0.000056  -0.000116   0.000109  -0.003982
   12  O  1 ZZ   -0.008099   0.000378  -0.000110   0.000006  -0.005342
   13  O  1 XY   -0.000281   0.000322   0.000000   0.000012  -0.011191
   14  O  1 XZ   -0.000099   0.000123  -0.000009  -0.000000  -0.003256
   15  O  1 YZ    0.000067  -0.000115  -0.000004   0.000031   0.001470
   16  C  2  S    0.000013   0.992820  -0.000114  -0.002289  -0.118434
   17  C  2  S    0.000534   0.048743  -0.000188  -0.000371   0.230631
   18  C  2  X    0.000035  -0.000613  -0.000024  -0.000231  -0.141362
   19  C  2  Y    0.000033   0.000512   0.000006  -0.000126   0.107178
   20  C  2  Z   -0.000003   0.000162  -0.000002   0.000002   0.034108
   21  C  2  S   -0.003352  -0.008739   0.000056   0.005024   0.071370
   22  C  2  X    0.002086  -0.002899   0.000442   0.001919   0.015058
   23  C  2  Y   -0.002242   0.001591  -0.000399   0.000823  -0.032447
   24  C  2  Z   -0.000605   0.000523  -0.000103   0.000041  -0.007434
   25  C  2 XX   -0.000575  -0.008766   0.000043  -0.000417   0.007456
   26  C  2 YY   -0.000315  -0.009140  -0.000038  -0.000229  -0.003287
   27  C  2 ZZ   -0.000043  -0.009673  -0.000065  -0.000129  -0.017901
   28  C  2 XY    0.000456  -0.000535   0.000015  -0.000178  -0.022076
   29  C  2 XZ    0.000152  -0.000204   0.000004  -0.000006  -0.007141
   30  C  2 YZ   -0.000112   0.000183  -0.000003   0.000018   0.005713
   31  C  3  S   -0.000011   0.002022   0.045384   0.991715  -0.020176
   32  C  3  S   -0.000000  -0.000068   0.001758   0.049603   0.036689
   33  C  3  X   -0.000009   0.000251  -0.000316   0.000040  -0.028280
   34  C  3  Y   -0.000045   0.000199   0.000259  -0.000264  -0.004937
   35  C  3  Z   -0.000001   0.000010   0.000013   0.000000   0.001389
   36  C  3  S    0.000618   0.003047   0.003773  -0.015617   0.023026
   37  C  3  X   -0.000379  -0.001197   0.001489   0.000413  -0.019203
   38  C  3  Y    0.000425  -0.001109  -0.000920   0.002146   0.007744
   39  C  3  Z    0.000097  -0.000137  -0.000021   0.000059   0.002657
   40  C  3 XX   -0.000068  -0.000520  -0.000718  -0.009209   0.007467
   41  C  3 YY   -0.000002  -0.000242  -0.000683  -0.009270  -0.000563
   42  C  3 ZZ   -0.000019  -0.000170  -0.000572  -0.009631  -0.002391
   43  C  3 XY    0.000038  -0.000114   0.000034  -0.000179   0.002138
   44  C  3 XZ    0.000008   0.000008   0.000000  -0.000010  -0.000430
   45  C  3 YZ   -0.000012   0.000000  -0.000008   0.000022  -0.000144
   46  C  4  S    0.000023  -0.000055   0.991657  -0.045863  -0.003826
   47  C  4  S    0.000114  -0.000245   0.049183  -0.002812   0.009627
   48  C  4  X   -0.000086   0.000141  -0.000056   0.000327  -0.006711
   49  C  4  Y   -0.000008   0.000054  -0.000006  -0.000234   0.001429
   50  C  4  Z   -0.000012  -0.000005   0.000024  -0.000012   0.000180
   51  C  4  S   -0.000104   0.000034  -0.012691   0.005870   0.010340
   52  C  4  X    0.000556  -0.000736   0.000746  -0.002141   0.008237
   53  C  4  Y    0.000217  -0.000200  -0.000520   0.000685   0.009550
   54  C  4  Z    0.000012   0.000042  -0.000059   0.000048  -0.000048
   55  C  4 XX   -0.000008   0.000057  -0.009310   0.000146   0.000335
   56  C  4 YY    0.000033   0.000040  -0.009369   0.000131  -0.000090
   57  C  4 ZZ    0.000066  -0.000133  -0.009778   0.000326   0.000140
   58  C  4 XY   -0.000003  -0.000053  -0.000141   0.000111  -0.000129
   59  C  4 XZ   -0.000000  -0.000009  -0.000008   0.000006   0.000016
   60  C  4 YZ   -0.000008   0.000011   0.000016  -0.000011  -0.000048
   61  H  5  S   -0.000044  -0.000248  -0.000061  -0.000114   0.028022
   62  H  5  S   -0.000539   0.002425  -0.000175  -0.000093  -0.016615
   63  H  6  S   -0.000029  -0.000042  -0.000101  -0.000357   0.007463
   64  H  6  S   -0.000298   0.000319   0.000012   0.001669  -0.001519
   65  H  7  S    0.000091  -0.000126  -0.000336  -0.000123   0.002943
   66  H  7  S    0.000039  -0.000054   0.002164  -0.000509   0.003735
   67  H  8  S   -0.000037   0.000045  -0.000335  -0.000017  -0.000004
   68  H  8  S   -0.000306   0.000526   0.002124   0.000072  -0.007148

                      6          7          8          9         10
                   -0.7973    -0.6439    -0.5729    -0.4763    -0.4691
                     A          A          A          A          A   
    1  O  1  S    0.039381  -0.067140  -0.036321   0.015060   0.065643
    2  O  1  S   -0.091392   0.153516   0.083655  -0.026218  -0.137182
    3  O  1  X    0.004021  -0.059466  -0.000131  -0.073870   0.253163
    4  O  1  Y    0.013739   0.016304   0.111705  -0.182887  -0.086391
    5  O  1  Z    0.003070   0.009441   0.020145  -0.038943  -0.054723
    6  O  1  S   -0.079561   0.186837   0.103233  -0.084253  -0.281895
    7  O  1  X    0.006056  -0.034718  -0.004555  -0.051534   0.128379
    8  O  1  Y   -0.000573   0.010793   0.058903  -0.093503  -0.035970
    9  O  1  Z   -0.000851   0.005541   0.011310  -0.018567  -0.026472
   10  O  1 XX    0.001836  -0.008077   0.002685  -0.009056   0.020000
   11  O  1 YY   -0.000642  -0.002127  -0.008886   0.015802   0.004658
   12  O  1 ZZ   -0.000598   0.000715   0.000423   0.003351   0.001035
   13  O  1 XY   -0.000022   0.003833   0.007293  -0.005894  -0.008276
   14  O  1 XZ   -0.000196   0.001785   0.001101  -0.000562  -0.004747
   15  O  1 YZ   -0.000043  -0.001122  -0.002864   0.004004   0.002421
   16  C  2  S   -0.051172   0.115510   0.086128  -0.013726  -0.051293
   17  C  2  S    0.101101  -0.244933  -0.182632   0.027386   0.123607
   18  C  2  X    0.132149  -0.165535   0.038592  -0.207535  -0.058622
   19  C  2  Y   -0.015251   0.046765   0.222398  -0.242858   0.147693
   20  C  2  Z   -0.011937   0.026533   0.036807  -0.043125   0.014742
   21  C  2  S    0.081835  -0.210263  -0.183282   0.066075   0.104396
   22  C  2  X    0.038379  -0.045020  -0.016317  -0.067474  -0.010729
   23  C  2  Y   -0.014670   0.028929   0.076055  -0.067390   0.051662
   24  C  2  Z   -0.004492   0.011042   0.014299  -0.014225   0.000407
   25  C  2 XX    0.005112   0.006427   0.009726  -0.001409  -0.012645
   26  C  2 YY   -0.000730  -0.003297  -0.005010   0.006449   0.001393
   27  C  2 ZZ   -0.004501   0.008166   0.006222  -0.001780  -0.004649
   28  C  2 XY    0.009784  -0.013529   0.000739   0.001000   0.002386
   29  C  2 XZ    0.001606  -0.002340  -0.000572  -0.000222   0.000459
   30  C  2 YZ    0.000065  -0.001462  -0.002987   0.001647   0.000370
   31  C  3  S   -0.159877   0.058199  -0.095970  -0.008490   0.031539
   32  C  3  S    0.313299  -0.118969   0.194917   0.015259  -0.068612
   33  C  3  X    0.048804   0.211137   0.044857   0.235997  -0.166400
   34  C  3  Y   -0.074192  -0.019495   0.182471   0.109153   0.233551
   35  C  3  Z   -0.003553   0.000185   0.012739  -0.008900   0.012651
   36  C  3  S    0.203978  -0.104726   0.211495   0.013155  -0.025023
   37  C  3  X    0.006835   0.048068   0.000993   0.101735  -0.027527
   38  C  3  Y    0.013668  -0.013172   0.056877   0.033172   0.057637
   39  C  3  Z    0.000548  -0.000053   0.003786  -0.006145   0.002457
   40  C  3 XX    0.001179  -0.000339  -0.006870  -0.001348   0.008865
   41  C  3 YY    0.003079  -0.000889   0.005422   0.002415   0.001540
   42  C  3 ZZ   -0.015527   0.005003  -0.007932  -0.000765   0.001523
   43  C  3 XY   -0.003852  -0.014490  -0.002165   0.000172   0.006704
   44  C  3 XZ   -0.000135  -0.000868  -0.000514   0.000870   0.000237
   45  C  3 YZ    0.000881  -0.000274   0.000567   0.000787  -0.000079
   46  C  4  S   -0.145239  -0.131591   0.047736   0.007820  -0.006751
   47  C  4  S    0.280686   0.263494  -0.095974  -0.014476   0.016312
   48  C  4  X   -0.084589   0.083131  -0.047507   0.054228   0.353382
   49  C  4  Y    0.055603  -0.014028   0.160007   0.296180  -0.062488
   50  C  4  Z    0.003441   0.000534   0.007324   0.004798  -0.003628
   51  C  4  S    0.219769   0.245665  -0.104085  -0.050493   0.007252
   52  C  4  X   -0.014874   0.036832  -0.008768   0.028551   0.144671
   53  C  4  Y   -0.001201  -0.009573   0.054689   0.103703  -0.020437
   54  C  4  Z    0.000190  -0.000135   0.002885   0.001201  -0.000642
   55  C  4 XX    0.005908  -0.001091  -0.000550   0.004517   0.005214
   56  C  4 YY    0.002679   0.005386  -0.002614  -0.009025   0.003545
   57  C  4 ZZ   -0.015251  -0.012207   0.004542   0.000976  -0.000216
   58  C  4 XY   -0.004690   0.006848  -0.009052  -0.002553   0.013978
   59  C  4 XZ   -0.000406   0.000131  -0.000508   0.000296   0.000599
   60  C  4 YZ    0.000742   0.000620   0.000045  -0.000207   0.000055
   61  H  5  S    0.033680  -0.103872  -0.179527   0.149559  -0.020318
   62  H  5  S    0.004434  -0.029745  -0.095617   0.105275  -0.022575
   63  H  6  S    0.075286  -0.045782   0.170422   0.078599   0.090561
   64  H  6  S    0.002900  -0.009644   0.085346   0.051588   0.071156
   65  H  7  S    0.074922   0.106383  -0.119917  -0.176560   0.029590
   66  H  7  S    0.009784   0.036540  -0.065156  -0.121340   0.024117
   67  H  8  S    0.071614   0.132629  -0.036926   0.080499   0.187568
   68  H  8  S    0.014780   0.047844  -0.019723   0.058526   0.132629

                     11         12         13         14         15
                   -0.4157    -0.3937    -0.3900    -0.2879    -0.2532
                     A          A          A          A          A   
    1  O  1  S    0.060776  -0.016761   0.003249   0.000793  -0.000471
    2  O  1  S   -0.121772   0.031036  -0.004709  -0.000393  -0.006542
    3  O  1  X    0.360689  -0.009912  -0.021451  -0.035309   0.354945
    4  O  1  Y   -0.241723   0.119562  -0.153968   0.067428   0.459795
    5  O  1  Z   -0.009123   0.289375   0.327656  -0.263766   0.066046
    6  O  1  S   -0.265788   0.088238  -0.028048  -0.013220   0.042954
    7  O  1  X    0.193352   0.003488  -0.016694  -0.027170   0.259754
    8  O  1  Y   -0.131223   0.064102  -0.088501   0.051076   0.322361
    9  O  1  Z   -0.001886   0.174270   0.201709  -0.189846   0.044889
   10  O  1 XX    0.021045   0.003166  -0.001725  -0.001363   0.013485
   11  O  1 YY    0.008218  -0.006583   0.011311  -0.002258  -0.016997
   12  O  1 ZZ   -0.000807  -0.006561  -0.006485   0.005321  -0.003243
   13  O  1 XY   -0.015471   0.002253  -0.006465   0.003601   0.005783
   14  O  1 XZ   -0.001148   0.014772   0.018465  -0.009756  -0.000421
   15  O  1 YZ    0.000606  -0.011560  -0.010301   0.007648  -0.004066
   16  C  2  S   -0.017246  -0.018745   0.014805  -0.001212   0.001332
   17  C  2  S    0.052312   0.038781  -0.033858   0.001247  -0.014744
   18  C  2  X   -0.204815   0.209054  -0.079564  -0.001296  -0.087708
   19  C  2  Y    0.203901  -0.013692  -0.129633  -0.005163  -0.104442
   20  C  2  Z    0.129419   0.199355   0.270758  -0.044270  -0.012992
   21  C  2  S   -0.003990   0.073902  -0.041763   0.018167   0.003800
   22  C  2  X   -0.013981   0.075244  -0.036743  -0.012011   0.079325
   23  C  2  Y    0.011475  -0.007230  -0.048552   0.006374   0.001319
   24  C  2  Z    0.043367   0.115124   0.160092  -0.025949  -0.003566
   25  C  2 XX    0.005094  -0.004421  -0.001956   0.001331  -0.039042
   26  C  2 YY   -0.015866  -0.001886  -0.000460   0.004183   0.040228
   27  C  2 ZZ   -0.004157   0.005171   0.006122  -0.004870   0.000475
   28  C  2 XY   -0.014053   0.004259   0.006551  -0.003237  -0.014692
   29  C  2 XZ   -0.004448  -0.006223  -0.009699   0.024664   0.000674
   30  C  2 YZ    0.001771   0.008652   0.011007  -0.004498   0.011104
   31  C  3  S   -0.002006   0.012094  -0.008176   0.001358   0.039498
   32  C  3  S    0.008267  -0.021995   0.012120  -0.000976  -0.076553
   33  C  3  X    0.154525  -0.087644   0.030064   0.007673   0.212676
   34  C  3  Y   -0.184030  -0.183900   0.186550  -0.016243   0.065088
   35  C  3  Z    0.032551   0.091683   0.144649   0.362603  -0.002987
   36  C  3  S   -0.027989  -0.045936   0.050322  -0.015230  -0.334833
   37  C  3  X    0.033595  -0.032585   0.025502   0.003450   0.075734
   38  C  3  Y   -0.024349  -0.065752   0.053846  -0.013411   0.112455
   39  C  3  Z    0.023030   0.054122   0.077070   0.243759   0.009298
   40  C  3 XX    0.005571   0.014419  -0.013616   0.000302  -0.002911
   41  C  3 YY   -0.010159  -0.018032   0.017524   0.001206   0.005851
   42  C  3 ZZ    0.000381   0.001125  -0.001062  -0.000851   0.002216
   43  C  3 XY   -0.010935   0.005535   0.001260  -0.000483  -0.004420
   44  C  3 XZ   -0.002721  -0.003917  -0.004616   0.013116  -0.001076
   45  C  3 YZ   -0.002223  -0.004097  -0.003312  -0.011034   0.001471
   46  C  4  S   -0.018911  -0.002343   0.010346   0.000408  -0.009128
   47  C  4  S    0.043667   0.004006  -0.021521  -0.001800   0.015605
   48  C  4  X   -0.205870   0.151364  -0.041505   0.002463  -0.067820
   49  C  4  Y    0.103360   0.216433  -0.180958  -0.008939   0.030540
   50  C  4  Z    0.025680   0.060171   0.071459   0.376522  -0.008756
   51  C  4  S    0.067912   0.011544  -0.047678   0.000589   0.118586
   52  C  4  X   -0.070962   0.056154  -0.013197  -0.004341  -0.085171
   53  C  4  Y    0.043626   0.083304  -0.073888  -0.006352   0.056843
   54  C  4  Z    0.013164   0.032170   0.042018   0.275032  -0.010270
   55  C  4 XX   -0.002332   0.018880  -0.012592  -0.000146  -0.007526
   56  C  4 YY   -0.005023  -0.019135   0.014835  -0.000874   0.006143
   57  C  4 ZZ   -0.000262  -0.000296   0.001052   0.000752  -0.001079
   58  C  4 XY   -0.007499   0.006077  -0.001824   0.000503  -0.003017
   59  C  4 XZ   -0.001728  -0.003130  -0.004632  -0.012444   0.000347
   60  C  4 YZ    0.000552   0.001146   0.003017   0.009008   0.000287
   61  H  5  S   -0.113029  -0.009028   0.039449   0.013862   0.169667
   62  H  5  S   -0.125275  -0.022442   0.051518   0.012207   0.260752
   63  H  6  S   -0.110074  -0.145395   0.146883   0.000242   0.028901
   64  H  6  S   -0.118901  -0.122931   0.129003   0.005613   0.071324
   65  H  7  S   -0.040666  -0.162264   0.121685  -0.002058   0.015033
   66  H  7  S   -0.047827  -0.150503   0.120490  -0.000295   0.047710
   67  H  8  S   -0.078836   0.158480  -0.087507   0.001132  -0.042956
   68  H  8  S   -0.080138   0.143959  -0.075870   0.003793  -0.054647

                     16         17         18         19         20
                   -0.0600     0.0564     0.1105     0.1155     0.1533
                     A          A          A          A          A   
    1  O  1  S   -0.000988   0.003689   0.013370  -0.006851  -0.004165
    2  O  1  S    0.003919  -0.012670  -0.030219   0.006102  -0.018024
    3  O  1  X    0.040513  -0.002135  -0.023086   0.044772  -0.021738
    4  O  1  Y   -0.062587  -0.050502   0.086959  -0.005704   0.067389
    5  O  1  Z    0.341056   0.242044  -0.004594   0.028147   0.023933
    6  O  1  S    0.004501  -0.025207  -0.126743   0.101853   0.202989
    7  O  1  X    0.036361   0.009779  -0.000409   0.072911   0.046633
    8  O  1  Y   -0.060659  -0.059127   0.163750   0.024518   0.061184
    9  O  1  Z    0.323659   0.306525   0.003830   0.040994   0.019946
   10  O  1 XX    0.000789  -0.000046   0.002250  -0.008930  -0.007175
   11  O  1 YY    0.000897  -0.003144   0.000812  -0.001781  -0.009168
   12  O  1 ZZ   -0.000292   0.000755   0.002879  -0.002987  -0.003884
   13  O  1 XY   -0.000784   0.001525   0.000975  -0.000100  -0.010663
   14  O  1 XZ    0.000756  -0.000630   0.000894   0.000089  -0.002169
   15  O  1 YZ   -0.002303   0.006028  -0.001648   0.000734   0.000893
   16  C  2  S   -0.001079   0.003210  -0.045729  -0.029120  -0.109752
   17  C  2  S   -0.000083   0.000360   0.083047   0.029056   0.180100
   18  C  2  X   -0.029914  -0.037679  -0.035405  -0.019043   0.084834
   19  C  2  Y    0.064863   0.093519  -0.166314  -0.151013  -0.210572
   20  C  2  Z   -0.332722  -0.386491   0.013801  -0.074970  -0.077267
   21  C  2  S    0.012687  -0.095395   0.550410   0.560357   1.571722
   22  C  2  X   -0.022790  -0.107321  -0.256358   0.115847   0.459508
   23  C  2  Y    0.052716   0.131319  -0.451623  -0.269527  -0.622771
   24  C  2  Z   -0.311324  -0.539642  -0.014810  -0.154034  -0.189577
   25  C  2 XX   -0.004079  -0.002812  -0.013508   0.007982  -0.017547
   26  C  2 YY   -0.004507  -0.004292   0.004257  -0.009192  -0.011658
   27  C  2 ZZ    0.007130   0.008866   0.001635  -0.004933   0.003072
   28  C  2 XY    0.004496   0.007592   0.010285  -0.017277  -0.003009
   29  C  2 XZ   -0.026596   0.006096   0.002829  -0.002607   0.002371
   30  C  2 YZ    0.007335   0.022899  -0.001704   0.003143  -0.001775
   31  C  3  S   -0.000761  -0.007094   0.003463   0.071013   0.014901
   32  C  3  S   -0.001851   0.004343  -0.021073  -0.109429  -0.021441
   33  C  3  X    0.006660   0.000128   0.009583  -0.011385   0.187833
   34  C  3  Y    0.009417  -0.000801   0.073424  -0.231558   0.064302
   35  C  3  Z   -0.212906   0.410645  -0.021260   0.028172   0.025483
   36  C  3  S    0.023932   0.172351   0.284919  -1.095631  -0.161416
   37  C  3  X   -0.003074  -0.032719  -0.217340   0.110101   0.576109
   38  C  3  Y    0.022693  -0.020897   0.210673  -0.467225   0.232495
   39  C  3  Z   -0.266934   0.646305  -0.016719   0.053734   0.075996
   40  C  3 XX    0.002105   0.004129   0.000832  -0.017697   0.013593
   41  C  3 YY   -0.002916  -0.006997  -0.000756   0.026703  -0.009693
   42  C  3 ZZ   -0.000645   0.000555   0.000333   0.002934  -0.001276
   43  C  3 XY   -0.003796  -0.005461  -0.003477   0.002392   0.025151
   44  C  3 XZ    0.028374   0.006723  -0.001732   0.002574   0.002261
   45  C  3 YZ   -0.003880   0.019592  -0.001852   0.003478   0.000426
   46  C  4  S   -0.003646  -0.012332  -0.114799   0.004161   0.056293
   47  C  4  S    0.010166   0.027826   0.181346  -0.009875  -0.084633
   48  C  4  X   -0.006278   0.001671   0.156755  -0.177140   0.067317
   49  C  4  Y   -0.010952   0.009341  -0.139530  -0.183720   0.162559
   50  C  4  Z    0.370108  -0.226363  -0.002470  -0.023627  -0.018414
   51  C  4  S    0.027747   0.119363   1.791646  -0.138235  -0.888673
   52  C  4  X    0.016671   0.076933   0.470343  -0.480734   0.290017
   53  C  4  Y   -0.015064   0.006806  -0.369690  -0.441099   0.405011
   54  C  4  Z    0.435278  -0.461460   0.008277  -0.055015  -0.031061
   55  C  4 XX   -0.001196  -0.003415  -0.010081   0.014272  -0.012332
   56  C  4 YY    0.001167  -0.000569  -0.002589  -0.012295   0.023963
   57  C  4 ZZ   -0.000052   0.002009  -0.005901  -0.001813   0.000630
   58  C  4 XY   -0.001102  -0.000436  -0.009373   0.009648  -0.006453
   59  C  4 XZ    0.010897  -0.016953   0.000181  -0.001674  -0.002336
   60  C  4 YZ   -0.005463   0.019740  -0.001622   0.001532   0.001899
   61  H  5  S   -0.003747   0.015909   0.004737  -0.052075  -0.089567
   62  H  5  S   -0.021569   0.089833  -0.805316  -0.746719  -1.542872
   63  H  6  S   -0.011359  -0.018298   0.015252   0.111812  -0.017040
   64  H  6  S   -0.036562  -0.120980  -0.206864   1.348162  -0.246829
   65  H  7  S    0.005677   0.001584  -0.047064  -0.043848   0.109379
   66  H  7  S   -0.009100  -0.059491  -1.232383  -0.706940   1.120480
   67  H  8  S   -0.006236  -0.013772  -0.080197   0.052221  -0.048746
   68  H  8  S   -0.031495  -0.140161  -1.219992   0.926491  -0.235013

                     21         22         23         24         25
                    0.1915     0.2641     0.3143     0.3503     0.5085
                     A          A          A          A          A   
    1  O  1  S    0.005236  -0.107215  -0.033497   0.033277   0.003562
    2  O  1  S   -0.010359   0.101966   0.102661   0.039560   0.026052
    3  O  1  X   -0.050514   0.095127   0.164513  -0.058010   0.049192
    4  O  1  Y   -0.095152  -0.141093   0.016679  -0.010953   0.024828
    5  O  1  Z   -0.006686  -0.037690  -0.016180  -0.004882  -0.029367
    6  O  1  S   -0.109894   2.119769   0.281243  -0.999076  -0.212491
    7  O  1  X   -0.104773   0.593568   0.332836  -0.496800  -0.063441
    8  O  1  Y   -0.107809  -0.604800   0.008909  -0.023752   0.064255
    9  O  1  Z   -0.006210  -0.174672  -0.006402   0.053832  -0.052666
   10  O  1 XX    0.000626  -0.023191   0.003310   0.028816  -0.006766
   11  O  1 YY   -0.001806  -0.044356   0.010549   0.016143   0.000768
   12  O  1 ZZ   -0.000122  -0.060913  -0.002636   0.047946   0.028590
   13  O  1 XY    0.004486  -0.035222  -0.006313   0.004568   0.014472
   14  O  1 XZ    0.000502  -0.011458   0.001717   0.006473  -0.030180
   15  O  1 YZ   -0.001649   0.008243   0.003962  -0.008547   0.023093
   16  C  2  S   -0.007830   0.030306   0.072765  -0.065391   0.009778
   17  C  2  S    0.034313   0.006894  -0.026004   0.068167  -0.083141
   18  C  2  X    0.161603   0.186839  -0.089963   0.310616  -0.072627
   19  C  2  Y    0.156440  -0.016041  -0.171443   0.332258   0.137402
   20  C  2  Z    0.017039  -0.026964  -0.006032   0.069723  -0.645680
   21  C  2  S   -0.254551  -0.839394  -1.704435   1.983136   0.268537
   22  C  2  X    0.085030   2.173614  -0.675240   0.545639  -0.065329
   23  C  2  Y    0.524441  -0.883048  -0.241123   1.762665  -0.022033
   24  C  2  Z    0.077886  -0.360167  -0.094844   0.241031   0.708184
   25  C  2 XX   -0.000515   0.005580   0.026239  -0.008001   0.018840
   26  C  2 YY   -0.006282   0.000684  -0.002729  -0.010040  -0.008454
   27  C  2 ZZ    0.003282  -0.016936  -0.008460   0.016837  -0.010379
   28  C  2 XY   -0.009556  -0.014156  -0.008733  -0.022317  -0.008156
   29  C  2 XZ   -0.001931  -0.003549  -0.004158  -0.001121  -0.009590
   30  C  2 YZ   -0.002052   0.007032   0.008112   0.000127  -0.018000
   31  C  3  S    0.093287   0.015752  -0.116026   0.024417  -0.016888
   32  C  3  S   -0.149874   0.060603   0.141406  -0.091330  -0.028666
   33  C  3  X   -0.025796  -0.039383   0.025365   0.306042  -0.107634
   34  C  3  Y   -0.176455   0.109854  -0.307871   0.034664   0.007460
   35  C  3  Z   -0.004651   0.030403  -0.012055   0.002335  -0.428518
   36  C  3  S   -1.579668  -1.200475   3.448947   0.744896   0.191131
   37  C  3  X   -0.238427   0.346909   0.408325   3.058721   0.371526
   38  C  3  Y   -1.002415   1.198826  -2.034780  -0.722151  -0.177195
   39  C  3  Z   -0.062327   0.146975  -0.051675  -0.120949   0.181882
   40  C  3 XX    0.026640  -0.010813  -0.013435   0.029543  -0.020685
   41  C  3 YY   -0.014071   0.027196   0.011935  -0.017817  -0.011306
   42  C  3 ZZ   -0.000009   0.003481  -0.002916  -0.009576   0.013903
   43  C  3 XY    0.003690   0.026970   0.000935   0.023663   0.016477
   44  C  3 XZ    0.000085   0.004168   0.001026  -0.000581  -0.008359
   45  C  3 YZ   -0.000856   0.005335   0.002964  -0.003508   0.031549
   46  C  4  S   -0.050132  -0.017345   0.074813   0.025095   0.002958
   47  C  4  S    0.077189  -0.042994  -0.028005   0.026919  -0.091366
   48  C  4  X    0.186981   0.170653   0.112885  -0.012392   0.126253
   49  C  4  Y    0.220363  -0.078113   0.039947  -0.218020  -0.078756
   50  C  4  Z    0.009557   0.019047   0.016191   0.001573  -0.621467
   51  C  4  S    0.598488   1.086744  -2.345765  -2.163876  -0.192637
   52  C  4  X    0.627868  -0.484104   2.323018   1.040212  -0.018801
   53  C  4  Y    1.058086  -0.110963  -0.856422  -1.827304  -0.027111
   54  C  4  Z    0.042054  -0.047882  -0.069319  -0.056641   0.594865
   55  C  4 XX   -0.003856   0.017737   0.030491  -0.040302  -0.001535
   56  C  4 YY   -0.004095  -0.008248  -0.030353   0.030151  -0.008612
   57  C  4 ZZ   -0.002804  -0.006903   0.008719   0.006458  -0.001839
   58  C  4 XY    0.010780   0.013620  -0.035911  -0.023009   0.004282
   59  C  4 XZ    0.000680   0.001242  -0.000242  -0.000155   0.019195
   60  C  4 YZ    0.000282   0.003345  -0.000152   0.000862  -0.025891
   61  H  5  S   -0.027054   0.066613   0.044909  -0.041404  -0.045880
   62  H  5  S    0.603253  -0.037187   0.151383   1.168489   0.070261
   63  H  6  S    0.016904   0.101860   0.033301  -0.030839  -0.021027
   64  H  6  S    1.687172  -0.706198   0.878937   0.182038   0.053920
   65  H  7  S   -0.008301  -0.050364  -0.124923   0.035723  -0.015949
   66  H  7  S    0.861778  -0.540484   0.229873  -1.163362  -0.018523
   67  H  8  S   -0.031614   0.041827  -0.019925  -0.188128  -0.002618
   68  H  8  S   -1.475687  -0.147487  -0.857438   0.300238  -0.031893

                     26         27         28         29         30
                    0.5173     0.5596     0.5852     0.6193     0.6361
                     A          A          A          A          A   
    1  O  1  S    0.017860   0.025379   0.001920  -0.003130  -0.002584
    2  O  1  S    0.056309  -0.120217  -0.007454  -0.005706  -0.040768
    3  O  1  X    0.171975  -0.022428  -0.001198  -0.204923   0.015080
    4  O  1  Y    0.102177  -0.034916   0.044200  -0.138930  -0.034449
    5  O  1  Z    0.013474  -0.003017  -0.092938  -0.035906  -0.038473
    6  O  1  S   -0.760729  -0.298524  -0.031978   0.286274   0.069420
    7  O  1  X   -0.213574  -0.308388  -0.010076   0.018522   0.032778
    8  O  1  Y    0.198708   0.063771   0.039455  -0.124066  -0.020963
    9  O  1  Z    0.094416   0.035185  -0.082276  -0.022849   0.128388
   10  O  1 XX   -0.014860  -0.037567  -0.005407   0.013842  -0.018881
   11  O  1 YY    0.041206  -0.018593  -0.010119   0.016725  -0.021203
   12  O  1 ZZ    0.038931   0.007523   0.011447  -0.015535  -0.012526
   13  O  1 XY    0.006797  -0.003772   0.010688  -0.024963   0.009927
   14  O  1 XZ    0.015974   0.000118  -0.040862  -0.008720   0.036020
   15  O  1 YZ   -0.004282  -0.003668   0.020615   0.011303   0.003747
   16  C  2  S    0.030631  -0.044501  -0.000939   0.004129   0.000579
   17  C  2  S   -0.301238  -0.478716   0.071186  -0.050298  -0.046840
   18  C  2  X   -0.189260  -0.312218  -0.019535  -0.417255   0.089686
   19  C  2  Y   -0.083823  -0.005021   0.181045  -0.223341  -0.089594
   20  C  2  Z    0.140992  -0.025560  -0.702671  -0.045895   0.195357
   21  C  2  S    0.935025   1.301621  -0.048969   0.064991  -0.070790
   22  C  2  X   -0.519912   0.481453  -0.057896   1.131745  -0.149932
   23  C  2  Y    0.436425   0.514730  -0.266268   0.642517   0.101762
   24  C  2  Z   -0.084681   0.118397   0.990942   0.092214  -0.644409
   25  C  2 XX    0.062097  -0.077976   0.009078  -0.035450   0.003931
   26  C  2 YY   -0.052502  -0.094075   0.014643   0.044655  -0.018337
   27  C  2 ZZ   -0.012942   0.037383  -0.007889  -0.011554   0.008981
   28  C  2 XY   -0.007091  -0.078493   0.004983   0.054795  -0.019274
   29  C  2 XZ   -0.002442   0.001526  -0.004953   0.004513  -0.024285
   30  C  2 YZ    0.004058  -0.025713  -0.019610   0.005863   0.015482
   31  C  3  S   -0.069362  -0.005878   0.004794  -0.015602  -0.002789
   32  C  3  S   -0.173786  -0.385401   0.052803  -0.360792  -0.014343
   33  C  3  X   -0.451946   0.441544  -0.031778  -0.163935   0.075104
   34  C  3  Y   -0.033800   0.248579  -0.027653  -0.037077   0.075297
   35  C  3  Z    0.125082   0.081463   0.122072  -0.097577  -0.945719
   36  C  3  S    0.575420   0.225016   0.012896   0.075461   0.057967
   37  C  3  X    1.081248   0.253594  -0.007316   0.439967  -0.095944
   38  C  3  Y   -0.626014  -0.328176   0.047917   0.400956  -0.187892
   39  C  3  Z   -0.106591  -0.122972  -0.241009   0.123229   1.523686
   40  C  3 XX   -0.092429  -0.110049   0.017069  -0.037610  -0.006431
   41  C  3 YY   -0.054062  -0.008005   0.011071  -0.107877   0.001165
   42  C  3 ZZ    0.051861   0.017940  -0.009349   0.044682   0.000747
   43  C  3 XY    0.055718  -0.003100  -0.001207  -0.084823   0.014235
   44  C  3 XZ    0.009154   0.006190   0.041296  -0.003008   0.019644
   45  C  3 YZ   -0.014809  -0.005982  -0.027877  -0.006904   0.025938
   46  C  4  S    0.008591   0.006410  -0.000682  -0.033579   0.006894
   47  C  4  S   -0.347637  -0.271235   0.028883  -0.354770   0.016054
   48  C  4  X    0.438421   0.263076  -0.010430  -0.219182   0.062934
   49  C  4  Y   -0.415277   0.175541  -0.019234   0.000551  -0.029875
   50  C  4  Z    0.140003   0.030345   0.720045   0.068964   0.454958
   51  C  4  S   -0.603741   0.073584  -0.009059   0.815255  -0.120857
   52  C  4  X   -0.254993  -0.148445   0.012511   0.623349  -0.120146
   53  C  4  Y    0.472538  -0.864047   0.002626  -0.162607   0.082758
   54  C  4  Z   -0.135488  -0.034538  -0.761994  -0.106917  -0.884228
   55  C  4 XX   -0.030977   0.035555   0.003828  -0.097400   0.008393
   56  C  4 YY   -0.014663  -0.077654  -0.001751  -0.062404   0.013430
   57  C  4 ZZ    0.001024   0.003291   0.000215   0.052115  -0.009336
   58  C  4 XY    0.023684  -0.006903   0.004065  -0.032301  -0.000318
   59  C  4 XZ   -0.005461  -0.005261  -0.031845   0.002183   0.030679
   60  C  4 YZ    0.005741  -0.000223   0.002771  -0.007001  -0.003195
   61  H  5  S   -0.200741  -0.347692  -0.000496   0.328514  -0.050328
   62  H  5  S    0.118528   0.205873  -0.039169   0.250083   0.014025
   63  H  6  S   -0.201619   0.114218   0.040428  -0.447225   0.018091
   64  H  6  S    0.218893  -0.068475  -0.003703  -0.040728   0.025444
   65  H  7  S    0.085521  -0.372732  -0.007680  -0.216389   0.044355
   66  H  7  S    0.208357  -0.356544  -0.008178  -0.161004   0.023508
   67  H  8  S   -0.037822   0.140753   0.005317  -0.441539   0.059033
   68  H  8  S   -0.072410   0.058700  -0.007545  -0.228984   0.054208

                     31         32         33         34         35
                    0.6631     0.6797     0.8100     0.8258     0.8547
                     A          A          A          A          A   
    1  O  1  S   -0.009204   0.044766   0.013685  -0.007919  -0.003788
    2  O  1  S   -0.004275  -0.134293  -0.152849   0.160685   0.377583
    3  O  1  X   -0.017463  -0.294383   0.211912  -0.212300  -0.381560
    4  O  1  Y   -0.239991   0.201364  -0.187605   0.160560   0.348949
    5  O  1  Z   -0.060947   0.066269  -0.040697   0.025384   0.090689
    6  O  1  S    0.005458   0.079960  -0.552566   0.136413  -0.317391
    7  O  1  X   -0.034433  -0.305794  -0.680447   0.501071   0.720394
    8  O  1  Y   -0.071565   0.111702   0.110451  -0.321295  -0.547160
    9  O  1  Z   -0.028586   0.060906   0.074202  -0.089756  -0.161739
   10  O  1 XX   -0.045829   0.071417  -0.174135   0.092455   0.136476
   11  O  1 YY   -0.011874   0.025446  -0.022367   0.072275   0.196647
   12  O  1 ZZ    0.006812  -0.041036  -0.015885   0.045705   0.129986
   13  O  1 XY    0.041852  -0.123797  -0.000229  -0.029321  -0.054810
   14  O  1 XZ    0.006753  -0.034981   0.016793  -0.009168  -0.013430
   15  O  1 YZ   -0.008580   0.029954   0.000037   0.009160   0.021393
   16  C  2  S    0.017991  -0.054814   0.001166  -0.034293  -0.045095
   17  C  2  S   -0.245082   0.440524   0.467088   0.225058   0.123771
   18  C  2  X   -0.017807  -0.804106  -0.219337   0.123380   0.025132
   19  C  2  Y   -0.340284   0.414845  -0.704822  -0.152257  -0.380763
   20  C  2  Z   -0.140837   0.166779  -0.125880  -0.050665  -0.088217
   21  C  2  S    0.082308   0.637956   0.394257  -1.939521  -0.806003
   22  C  2  X    0.487787   1.150051   0.729424  -0.404575   0.234634
   23  C  2  Y    0.792850   0.083219   2.948353  -0.237654   0.342973
   24  C  2  Z    0.286007  -0.136106   0.505643  -0.006736   0.063838
   25  C  2 XX    0.004122  -0.025898   0.158535  -0.093585  -0.041652
   26  C  2 YY   -0.002498  -0.007142  -0.017624  -0.038916  -0.122553
   27  C  2 ZZ   -0.015009   0.047430   0.014672   0.072390   0.083097
   28  C  2 XY   -0.053385   0.123245  -0.064949   0.043296   0.116831
   29  C  2 XZ   -0.011645   0.035886  -0.023870   0.020490   0.035581
   30  C  2 YZ    0.006048  -0.020460   0.000976  -0.027638  -0.065256
   31  C  3  S   -0.053222  -0.014764   0.026548  -0.012234   0.002233
   32  C  3  S    0.194731   0.355369   0.527878  -0.216438   0.000449
   33  C  3  X    0.514658  -0.057477  -0.312875   0.272500  -0.052225
   34  C  3  Y   -0.282359  -0.224897   0.272834   0.209561  -0.075210
   35  C  3  Z    0.069663  -0.086868   0.036328   0.009348  -0.011170
   36  C  3  S   -0.526470  -0.797006  -1.461907   0.763741   0.162542
   37  C  3  X   -0.254800   0.870460   2.037903  -1.387311   0.279158
   38  C  3  Y    0.452949   0.247751  -1.196442  -1.243627   0.333880
   39  C  3  Z   -0.159963   0.128310  -0.196560  -0.040578   0.015253
   40  C  3 XX   -0.060450  -0.009322   0.011336  -0.057146   0.052686
   41  C  3 YY   -0.061214   0.013646   0.113977   0.036907  -0.049837
   42  C  3 ZZ    0.057881   0.025634  -0.018937  -0.000706   0.002717
   43  C  3 XY    0.043816  -0.023796  -0.017055   0.005412   0.000178
   44  C  3 XZ    0.002297  -0.007996   0.000034   0.000748   0.002686
   45  C  3 YZ   -0.009238  -0.002671   0.005628   0.003999  -0.000768
   46  C  4  S    0.073527   0.040555  -0.019833   0.001936  -0.001785
   47  C  4  S    0.204542   0.241979   0.468081   0.017033   0.238847
   48  C  4  X    0.326617   0.102764  -0.072735  -0.520906   0.251801
   49  C  4  Y   -0.271909  -0.096081  -0.013174  -0.852579   0.338055
   50  C  4  Z   -0.029003   0.009799  -0.014290  -0.028622   0.006620
   51  C  4  S   -0.574307  -0.871332  -1.847240  -0.088047  -0.432414
   52  C  4  X   -0.466281   0.017482   0.382248   1.504918  -0.525196
   53  C  4  Y    0.327517  -0.197340  -0.468192   2.268738  -0.882814
   54  C  4  Z    0.072215  -0.050761   0.035832   0.074273  -0.020841
   55  C  4 XX    0.090194   0.102401   0.007796   0.072349  -0.048355
   56  C  4 YY    0.131774   0.020750   0.000079  -0.070677   0.074464
   57  C  4 ZZ   -0.083296  -0.037937   0.033742   0.009648   0.013096
   58  C  4 XY   -0.061546   0.013595   0.025932   0.016108  -0.028517
   59  C  4 XZ   -0.008716   0.004284   0.003183   0.001770   0.002195
   60  C  4 YZ    0.007268   0.001247  -0.004171  -0.003179   0.004278
   61  H  5  S    0.151952   0.031412  -0.330176  -0.223443  -0.591691
   62  H  5  S    0.447988   0.120730   2.166452   0.370448   0.985996
   63  H  6  S   -0.324094   0.071177   0.176614  -0.000032  -0.104575
   64  H  6  S   -0.017884   0.013229   0.573806   0.505693  -0.078477
   65  H  7  S    0.460365   0.101640  -0.160918  -0.361357   0.211557
   66  H  7  S   -0.044873  -0.013868   0.094406   1.791568  -0.770550
   67  H  8  S    0.274189   0.290964  -0.034262   0.338851  -0.300284
   68  H  8  S    0.210780  -0.100544   0.166223  -1.606080   0.897399

                     36         37         38         39         40
                    0.8702     0.9056     0.9477     0.9851     1.0594
                     A          A          A          A          A   
    1  O  1  S   -0.000237   0.001671   0.002454  -0.003173  -0.000680
    2  O  1  S   -0.054296   0.196126   0.178416  -0.037728   0.018372
    3  O  1  X   -0.014069  -0.006544  -0.054194   0.007512   0.486453
    4  O  1  Y   -0.035865   0.024351   0.028067   0.185619   0.513111
    5  O  1  Z   -0.026286  -0.086505   0.033096  -0.906228   0.150616
    6  O  1  S    0.094432  -0.719413  -0.725792   0.232568   0.013943
    7  O  1  X   -0.069762  -0.115469  -0.022627   0.041056  -0.787199
    8  O  1  Y   -0.052605  -0.158969  -0.127618  -0.206741  -0.887421
    9  O  1  Z    0.012084   0.085978  -0.047106   1.212362  -0.244708
   10  O  1 XX   -0.035455   0.012876   0.030985  -0.009042   0.092532
   11  O  1 YY   -0.022358   0.047542   0.022477  -0.022225  -0.068799
   12  O  1 ZZ    0.012411   0.120993   0.131451  -0.021541  -0.026700
   13  O  1 XY    0.020846  -0.006193   0.010157   0.002486   0.019678
   14  O  1 XZ    0.009307   0.013055   0.016034  -0.022072   0.002086
   15  O  1 YZ   -0.011167  -0.013669  -0.026600   0.024928  -0.014803
   16  C  2  S   -0.015178  -0.018431  -0.017811   0.004877   0.010681
   17  C  2  S   -0.291547  -0.810428  -1.183349   0.074556   0.357008
   18  C  2  X   -0.021432  -0.119609  -0.069201  -0.022382  -0.065246
   19  C  2  Y   -0.142320  -0.126780   0.108651   0.026241  -0.199952
   20  C  2  Z   -0.008869  -0.025564   0.032901   0.110136  -0.051668
   21  C  2  S    1.503503   2.590757   3.437208  -0.479854  -1.042511
   22  C  2  X    0.899662   0.977009   0.784334  -0.156499   0.360902
   23  C  2  Y    0.199705   1.164230   0.451648  -0.288745   1.044197
   24  C  2  Z   -0.002192   0.111064  -0.002618  -0.610408   0.239405
   25  C  2 XX    0.043917  -0.054250  -0.106909   0.002996  -0.109109
   26  C  2 YY   -0.067857  -0.063691  -0.019745  -0.001995   0.133019
   27  C  2 ZZ    0.001634   0.005402  -0.023223   0.001592   0.020226
   28  C  2 XY   -0.033053   0.007395   0.030767  -0.027622  -0.052694
   29  C  2 XZ   -0.002953   0.006792   0.013273   0.021449  -0.012191
   30  C  2 YZ   -0.015357  -0.008953  -0.000114   0.006749   0.039313
   31  C  3  S    0.035830   0.013098   0.014957  -0.004484  -0.028629
   32  C  3  S   -0.521345  -0.100213   0.414802  -0.134665  -0.824727
   33  C  3  X   -0.163828  -0.429593  -0.226595   0.037635  -0.008534
   34  C  3  Y   -0.955049   0.210041   0.113019   0.026320  -0.006861
   35  C  3  Z   -0.048392   0.013443  -0.007821   0.038472  -0.025216
   36  C  3  S    0.279467   0.205785  -1.063190   0.501655   2.389957
   37  C  3  X    0.826720   2.480794   1.809212  -0.456845   0.647800
   38  C  3  Y    2.776911  -0.728766  -0.323996  -0.147858  -0.336975
   39  C  3  Z    0.128872  -0.074797  -0.012862   0.089429  -0.013340
   40  C  3 XX   -0.130772  -0.012342   0.003545  -0.003416  -0.058698
   41  C  3 YY    0.109986   0.023163   0.041772  -0.025034  -0.092481
   42  C  3 ZZ   -0.078062  -0.008585  -0.001862   0.005407   0.033555
   43  C  3 XY    0.022839  -0.093938  -0.088547  -0.006858  -0.063412
   44  C  3 XZ    0.004340  -0.004696  -0.006906   0.012773   0.003881
   45  C  3 YZ    0.009447   0.000440  -0.008838   0.046669  -0.015313
   46  C  4  S   -0.005608   0.029714  -0.001124  -0.001301   0.015625
   47  C  4  S    0.007601  -0.189131   1.268145   0.239471   0.619624
   48  C  4  X   -0.047534  -0.620975   0.131731   0.011645  -0.017894
   49  C  4  Y   -0.049239   0.361330  -0.155314  -0.014582   0.103105
   50  C  4  Z   -0.001056   0.014577   0.014167  -0.063056   0.009217
   51  C  4  S    0.666723  -0.852878  -3.388603  -0.424496  -2.318162
   52  C  4  X   -0.493841   1.563625   0.079886   0.089783   0.374076
   53  C  4  Y   -0.271422  -1.276261  -0.194451   0.267982  -0.734818
   54  C  4  Z   -0.012993  -0.048153  -0.048157   0.083462  -0.048071
   55  C  4 XX    0.081386   0.013041   0.101602  -0.010379   0.033265
   56  C  4 YY   -0.057921   0.047718   0.012830   0.023814   0.027529
   57  C  4 ZZ   -0.006686  -0.097847   0.060853   0.021650   0.025651
   58  C  4 XY   -0.009462   0.162151  -0.018140  -0.012934   0.035191
   59  C  4 XZ   -0.001229   0.005496  -0.006934   0.022805  -0.004872
   60  C  4 YZ   -0.001082   0.002455  -0.003810   0.019431  -0.000710
   61  H  5  S   -0.126078  -0.014520   0.305440  -0.068731   0.114302
   62  H  5  S    0.175549   0.361837  -0.796176  -0.122738   0.757095
   63  H  6  S    0.662767  -0.012245   0.000400  -0.024239  -0.159895
   64  H  6  S   -2.554916   0.289162   0.297701   0.051797  -0.186602
   65  H  7  S   -0.117415   0.510991  -0.390400   0.021025   0.026104
   66  H  7  S   -0.031972  -1.080743   1.002385   0.257547   0.009967
   67  H  8  S   -0.011343   0.602877  -0.228262  -0.123918   0.112450
   68  H  8  S    0.077805  -1.178473   0.783096   0.137909   0.326980

                     41         42         43         44         45
                    1.0839     1.1472     1.2417     1.3591     1.4345
                     A          A          A          A          A   
    1  O  1  S    0.008818   0.001175  -0.033343  -0.016702  -0.026699
    2  O  1  S   -0.105039   0.131677  -0.331677  -0.076624  -0.458096
    3  O  1  X   -0.286703  -0.149590   0.149530   0.120169  -0.070754
    4  O  1  Y    0.150316  -0.428874   0.075131  -0.004273   0.053694
    5  O  1  Z   -0.089431  -0.020045  -0.032500   0.030616   0.001387
    6  O  1  S   -0.578717  -0.187667   1.525366   0.708321   1.422049
    7  O  1  X    0.235453   0.423148   0.079925   0.001766   0.384152
    8  O  1  Y   -0.426397   0.901628  -0.258022  -0.064378  -0.220470
    9  O  1  Z    0.154519   0.056717  -0.052364   0.037919  -0.257562
   10  O  1 XX   -0.019069   0.001087  -0.132584  -0.027495  -0.099412
   11  O  1 YY   -0.052866   0.102825  -0.054408  -0.065470  -0.052937
   12  O  1 ZZ    0.055056  -0.027401  -0.152019  -0.017933  -0.200552
   13  O  1 XY    0.040623  -0.036889   0.038444   0.040219  -0.009727
   14  O  1 XZ    0.004447   0.005828  -0.014701  -0.019549   0.188292
   15  O  1 YZ   -0.000637   0.035793  -0.058812   0.189790  -0.130702
   16  C  2  S    0.001017   0.024168  -0.025194  -0.010704  -0.008089
   17  C  2  S    0.306050   0.528555  -0.258317  -0.171531  -0.052095
   18  C  2  X    0.244482   0.191492   0.166206   0.041986  -0.015619
   19  C  2  Y   -0.240415   0.132540   0.027449   0.039744   0.021226
   20  C  2  Z   -0.023902  -0.002003   0.041059  -0.010032  -0.104319
   21  C  2  S    0.135286  -1.441415   2.139952   0.883284  -0.817791
   22  C  2  X   -0.355335  -1.463436   1.739360   0.785508   0.350905
   23  C  2  Y    2.195271  -1.054855  -1.222261  -0.953316  -0.456770
   24  C  2  Z    0.241901  -0.062889  -0.327294  -0.267925   0.058477
   25  C  2 XX   -0.010069   0.061194   0.053200   0.080495  -0.058764
   26  C  2 YY    0.130218  -0.029654   0.017657  -0.081119  -0.034157
   27  C  2 ZZ   -0.042624  -0.000039  -0.080026  -0.015086   0.083139
   28  C  2 XY    0.102937   0.003444   0.085700  -0.037432   0.119957
   29  C  2 XZ    0.089275  -0.020453  -0.152101   0.403047  -0.285078
   30  C  2 YZ    0.061032   0.012819  -0.142180   0.222021   0.180910
   31  C  3  S   -0.004667  -0.044898   0.029978   0.014195  -0.004795
   32  C  3  S    0.032628  -1.288643   0.743719   0.285332  -0.087881
   33  C  3  X   -0.138673  -0.178212  -0.078527   0.000145  -0.008219
   34  C  3  Y    0.002718   0.108361  -0.340620  -0.142138   0.014486
   35  C  3  Z    0.018363   0.025099  -0.031256   0.011209   0.159075
   36  C  3  S    0.215379   5.780859  -3.063650  -1.354332   0.430538
   37  C  3  X    2.273459   0.781788   0.702581  -0.203001  -0.086705
   38  C  3  Y   -0.496500  -0.593058   4.129821   1.949837  -0.235449
   39  C  3  Z   -0.158778  -0.047016   0.295832   0.117145  -0.087262
   40  C  3 XX    0.013637   0.002832   0.130331   0.038687   0.022722
   41  C  3 YY    0.011185  -0.125297  -0.065761  -0.015411  -0.055537
   42  C  3 ZZ    0.003142   0.004260  -0.040620  -0.031793   0.032012
   43  C  3 XY    0.041651  -0.025829  -0.019115   0.019058  -0.005989
   44  C  3 XZ   -0.068545  -0.002068   0.184558  -0.507303  -0.050354
   45  C  3 YZ   -0.018687   0.001970   0.037235  -0.013440   0.572592
   46  C  4  S    0.004066   0.025019  -0.012679  -0.008796   0.004933
   47  C  4  S   -0.320259   1.036204  -0.230669  -0.051896   0.056897
   48  C  4  X    0.359077  -0.021140  -0.131423  -0.114433  -0.004988
   49  C  4  Y    0.122927   0.145486   0.046135   0.004408  -0.021100
   50  C  4  Z    0.003654   0.003940  -0.036183   0.114615   0.088499
   51  C  4  S   -1.117850  -4.133244   2.824901   1.539267  -0.295614
   52  C  4  X   -1.002051   0.525929  -1.743241  -0.644660   0.296413
   53  C  4  Y   -1.839604  -1.472495  -1.190784  -0.162779   0.103837
   54  C  4  Z   -0.000343  -0.053673  -0.061948  -0.022330   0.011718
   55  C  4 XX    0.072949   0.060782   0.126020   0.039654   0.005714
   56  C  4 YY   -0.140543   0.015732  -0.077984   0.021808   0.024253
   57  C  4 ZZ    0.019940   0.037716  -0.075463  -0.070470  -0.026299
   58  C  4 XY    0.069123   0.107993  -0.034079  -0.041351  -0.013849
   59  C  4 XZ    0.023510   0.007256  -0.045738   0.193735   0.455320
   60  C  4 YZ   -0.032517  -0.000589   0.114278  -0.297797  -0.037563
   61  H  5  S    0.587990  -0.118722  -0.432945  -0.298328  -0.010690
   62  H  5  S    0.730971  -0.348295  -0.596922  -0.442215  -0.079363
   63  H  6  S    0.077218  -0.323508  -0.743981  -0.332238   0.046307
   64  H  6  S    0.066131  -0.464489  -1.256875  -0.612961   0.054321
   65  H  7  S   -0.361796  -0.129949  -0.553865  -0.188204   0.054890
   66  H  7  S   -0.639038   0.112684  -0.800709  -0.227783   0.049612
   67  H  8  S    0.482923   0.301857   0.383329   0.077064  -0.047542
   68  H  8  S    0.622660   0.606299   0.271789   0.024337  -0.093395

                     46         47         48         49         50
                    1.5458     1.5475     1.6565     1.7614     1.7922
                     A          A          A          A          A   
    1  O  1  S   -0.071109  -0.059506   0.003749  -0.045215   0.004633
    2  O  1  S   -1.247080  -1.006243   0.075189  -0.791039   0.117784
    3  O  1  X   -0.148069  -0.096580   0.017722  -0.054814   0.178728
    4  O  1  Y    0.097224   0.105650  -0.014640  -0.015602   0.178377
    5  O  1  Z    0.129776  -0.034196   0.039867   0.015936   0.021159
    6  O  1  S    4.045518   3.367335  -0.222439   2.955749  -0.319770
    7  O  1  X    1.138388   0.886091  -0.078548   0.847191  -0.339237
    8  O  1  Y   -0.665117  -0.544352   0.049462  -0.309059  -0.273918
    9  O  1  Z   -0.208756  -0.250103  -0.063515  -0.162067  -0.026890
   10  O  1 XX   -0.406087  -0.244562   0.048836  -0.392002  -0.464952
   11  O  1 YY   -0.186762  -0.112072  -0.097387  -0.469116   0.252039
   12  O  1 ZZ   -0.294546  -0.361699   0.097525   0.384890   0.286721
   13  O  1 XY    0.218479   0.059962  -0.017284  -0.212882  -0.294747
   14  O  1 XZ   -0.284595   0.359411   0.158349   0.051278   0.000412
   15  O  1 YZ    0.108939   0.051791   0.269179  -0.112028   0.004430
   16  C  2  S   -0.013464  -0.013048   0.001122   0.012588   0.018359
   17  C  2  S   -0.078751  -0.104293  -0.011657   0.385796  -0.146932
   18  C  2  X   -0.030206  -0.019120  -0.004352   0.255852  -0.070599
   19  C  2  Y    0.013644   0.051453   0.003297   0.144628   0.080723
   20  C  2  Z    0.111138  -0.110297  -0.031061   0.013768   0.023410
   21  C  2  S   -2.820021  -1.894786   0.195237  -2.372145   0.020846
   22  C  2  X    0.861300   0.974212  -0.009066   0.436588   0.327230
   23  C  2  Y   -1.451853  -1.337546   0.008391  -1.872071   0.667705
   24  C  2  Z   -0.425834  -0.254104   0.201372  -0.359947   0.108845
   25  C  2 XX    0.028270   0.010850   0.036504  -0.206746   0.343464
   26  C  2 YY    0.173072  -0.135617  -0.083918  -0.165283  -0.417528
   27  C  2 ZZ   -0.231153   0.098998   0.049311   0.433841   0.045919
   28  C  2 XY    0.079612   0.197055  -0.041481  -0.138004   0.129613
   29  C  2 XZ    0.180379  -0.018484   0.253501   0.083334  -0.002534
   30  C  2 YZ   -0.354500   0.422183   0.206026  -0.121827  -0.125317
   31  C  3  S   -0.021818  -0.007316   0.002789  -0.001249   0.018339
   32  C  3  S   -0.502729  -0.216268   0.057366   0.159841  -0.245278
   33  C  3  X    0.006988   0.022341   0.002259  -0.126022   0.262209
   34  C  3  Y    0.132663   0.042124  -0.016256  -0.120467  -0.018742
   35  C  3  Z    0.003586  -0.043731  -0.030109  -0.004910  -0.002689
   36  C  3  S    2.057766   0.791010  -0.261793   0.105398  -0.341394
   37  C  3  X   -0.529902  -0.489971  -0.075763  -1.073585  -0.347093
   38  C  3  Y   -0.881193   0.000283   0.213978   1.007273   0.104993
   39  C  3  Z    0.056840  -0.026489  -0.190263   0.111942   0.018493
   40  C  3 XX    0.057365   0.074503  -0.002306  -0.210060   0.246070
   41  C  3 YY    0.029000   0.003665   0.007157  -0.075720  -0.209586
   42  C  3 ZZ   -0.095146  -0.094391  -0.006838   0.351404  -0.022673
   43  C  3 XY   -0.002982   0.008878   0.010754  -0.184190   0.254227
   44  C  3 XZ    0.012187   0.003664   0.102307  -0.006398   0.001325
   45  C  3 YZ    0.057743  -0.281413  -0.074245  -0.021071  -0.008770
   46  C  4  S    0.012526   0.005531  -0.002183   0.006743  -0.001891
   47  C  4  S    0.289187   0.132270  -0.019655   0.055978   0.029684
   48  C  4  X   -0.088971  -0.079856  -0.016458  -0.059714  -0.122456
   49  C  4  Y   -0.060586  -0.036129   0.006910   0.063924  -0.056361
   50  C  4  Z    0.003386  -0.078464  -0.032388  -0.003646   0.008182
   51  C  4  S   -1.122382  -0.142476   0.253862   0.866556   0.272849
   52  C  4  X    1.212960   0.555967  -0.116384  -0.238454  -0.176280
   53  C  4  Y    0.436576   0.275266   0.016482   0.423923  -0.031548
   54  C  4  Z   -0.012403   0.087672   0.086216   0.014566  -0.020141
   55  C  4 XX    0.002215  -0.000089  -0.008383  -0.010159  -0.232416
   56  C  4 YY    0.114654   0.089898  -0.037716  -0.175323   0.217476
   57  C  4 ZZ   -0.117897  -0.087184   0.048998   0.199792   0.055628
   58  C  4 XY    0.026654   0.023069  -0.009629  -0.095458   0.009402
   59  C  4 XZ    0.114170  -0.348678   0.358883  -0.030117   0.043093
   60  C  4 YZ    0.094617  -0.027188   0.777255  -0.051147  -0.014846
   61  H  5  S   -0.037855  -0.083269   0.005266   0.003367   0.552156
   62  H  5  S   -0.240230  -0.278068  -0.014698  -0.453909   0.114542
   63  H  6  S    0.032542  -0.016383  -0.027350  -0.144206   0.148054
   64  H  6  S    0.157331  -0.064782  -0.052002  -0.305963  -0.089748
   65  H  7  S    0.172852   0.054924  -0.020322   0.202520  -0.255537
   66  H  7  S    0.264689   0.086315  -0.012639   0.039567   0.068433
   67  H  8  S   -0.176827  -0.100488   0.009378  -0.001127   0.189486
   68  H  8  S   -0.417806  -0.256341   0.011628  -0.019705   0.021345

                     51         52         53         54         55
                    1.8437     1.9069     1.9874     2.0421     2.1346
                     A          A          A          A          A   
    1  O  1  S    0.007462  -0.001348  -0.007147   0.002887   0.003770
    2  O  1  S    0.085174   0.104212   0.064909   0.277525  -0.038883
    3  O  1  X   -0.025325   0.144288  -0.009074   0.177706  -0.098541
    4  O  1  Y    0.020287  -0.149582  -0.122512  -0.010118   0.094522
    5  O  1  Z    0.049798  -0.034984  -0.027275  -0.037640   0.079757
    6  O  1  S   -0.434218  -0.055955   0.045399  -0.700302  -0.278936
    7  O  1  X   -0.110791  -0.078233   0.186053  -0.344751  -0.105124
    8  O  1  Y    0.049079   0.053962   0.223298  -0.095875  -0.019226
    9  O  1  Z   -0.046654   0.008860   0.041146   0.065688  -0.156339
   10  O  1 XX    0.083136   0.099663   0.012042  -0.278242  -0.134427
   11  O  1 YY   -0.258571   0.167651  -0.449376   0.421410   0.031028
   12  O  1 ZZ    0.219083  -0.154698   0.430239  -0.015633   0.037883
   13  O  1 XY   -0.015696   0.201200  -0.242897  -0.156561  -0.027783
   14  O  1 XZ    0.326983   0.020344  -0.002207   0.114976  -0.367219
   15  O  1 YZ    0.696160   0.166567  -0.199096   0.173260  -0.121544
   16  C  2  S   -0.002935   0.007596   0.012576  -0.006464  -0.029350
   17  C  2  S   -0.008998  -0.228310   0.096926   0.076192  -0.132426
   18  C  2  X   -0.033589   0.030057  -0.102082   0.263154  -0.034129
   19  C  2  Y   -0.023457  -0.093618  -0.159867   0.051875   0.012315
   20  C  2  Z    0.089591   0.002347  -0.022178  -0.023317   0.070584
   21  C  2  S    0.242527   0.845345  -1.124063   0.518184   0.771198
   22  C  2  X   -0.131779   0.479794  -0.799935   0.086301   0.175584
   23  C  2  Y    0.273826   0.270412  -0.553808   0.917630   0.334068
   24  C  2  Z    0.179962  -0.006897  -0.089416   0.071878   0.322776
   25  C  2 XX    0.052541  -0.142492  -0.170213   0.003009   0.238665
   26  C  2 YY    0.043269   0.164991   0.366047   0.015588  -0.085831
   27  C  2 ZZ   -0.113464   0.081037  -0.263265  -0.010536  -0.210180
   28  C  2 XY   -0.055130   0.272108   0.133225   0.215619  -0.119076
[...]

          ATOMIC WEIGHTS (AMU)

    1     O                15.99491
    2     C                12.00000
    3     C                12.00000
    4     C                12.00000
    5     H                 1.00782
    6     H                 1.00782
    7     H                 1.00782
    8     H                 1.00782

 MODES    1 TO    6 ARE TAKEN AS ROTATIONS AND TRANSLATIONS.

 ANALYZING SYMMETRY OF NORMAL MODES...

     FREQUENCIES IN CM**-1, IR INTENSITIES IN DEBYE**2/AMU-ANGSTROM**2,
     REDUCED MASSES IN AMU.

                            1           2           3           4           5
       FREQUENCY:         5.12        4.04        0.08        0.01        0.17  
        SYMMETRY:         A           A           A           A           A   
    REDUCED MASS:      4.70301     2.77310     7.09083     7.00180     7.09379
    IR INTENSITY:      0.08327     0.11373     0.00014     0.00000     0.00004

  1   O            X  0.04047879 -0.00520062  0.00877394  0.13325442 -0.00135023
                   Y  0.15297706  0.00508009  0.11057002 -0.00839768 -0.07219658
                   Z  0.00175427 -0.14107930  0.07828288 -0.00377270  0.11466394
  2   C            X -0.02163182  0.00182669  0.00892063  0.13331901 -0.00178198
                   Y  0.06080368 -0.00420152  0.11137986 -0.00835884 -0.07244350
                   Z  0.00536468  0.03477363  0.07299631 -0.00328625  0.11115643
  3   C            X  0.02764726 -0.00255562  0.00872255  0.13327009 -0.00145519
                   Y -0.06370611  0.00994117  0.11189692 -0.00821926 -0.07334734
                   Z -0.00651781 -0.03624411  0.07257922 -0.00363210  0.11295345
  4   C            X -0.04634965  0.00567721  0.00890273  0.13334519 -0.00196780
                   Y -0.16162748 -0.00157299  0.11279127 -0.00818247 -0.07357238
                   Z -0.00161313  0.16738701  0.06659534 -0.00305945  0.10885549
  5   H            X -0.12258606  0.01241430  0.00922069  0.13341885 -0.00247336
                   Y  0.06519803 -0.02462125  0.11179040 -0.00842947 -0.07198437
                   Z  0.01827130  0.26764456  0.06798898 -0.00252507  0.10620799
  6   H            X  0.12635539 -0.01275879  0.00842745  0.13316669 -0.00078285
                   Y -0.07130296  0.02991597  0.11151724 -0.00814764 -0.07381261
                   Z -0.01939400 -0.26133514  0.07736868 -0.00437112  0.11774298
  7   H            X -0.14516885  0.01580706  0.00920286  0.13344501 -0.00264094
                   Y -0.15171993 -0.02167614  0.11315874 -0.00825573 -0.07309281
                   Z  0.01130626  0.39121492  0.06186826 -0.00232236  0.10408210
  8   H            X -0.01200385  0.00268715  0.00876260  0.13330924 -0.00174181
                   Y -0.25445361  0.00839556  0.11318848 -0.00807680 -0.07423323
                   Z -0.01016909  0.11981121  0.06617081 -0.00329910  0.11007306

 TRANS. SAYVETZ    X  0.00884022 -0.00551233  0.49478157  7.46811698 -0.09175526
                   Y  0.05699072  0.12320718  6.25454753 -0.46461412 -4.08255309
                   Z -0.00512121  0.25583147  4.07371400 -0.19269335  6.27115818
               TOTAL  0.05789921  0.28400728  7.48059619  7.48503629  7.48352081

   ROT. SAYVETZ    X -0.76382594 -6.85739757  0.20545063 -0.01881302  0.13487082
                   Y  0.68293309-13.86859801  0.58785935 -0.02852767  0.25300278
                   Z-20.64398920  0.23682486  0.12686263  0.01610385 -0.10399093
               TOTAL 20.66940052 15.47313796  0.63551767  0.03777687  0.30498304

                            6           7           8           9          10
       FREQUENCY:         4.43      174.54      320.84      572.41      610.81  
        SYMMETRY:         A           A           A           A           A   
    REDUCED MASS:      2.29509     3.46072     2.70035     4.91207     1.18077
    IR INTENSITY:      0.00418     0.09360     0.22158     0.13739     0.17365

  1   O            X -0.00190022  0.00208172 -0.03570411  0.15393779  0.00007860
                   Y  0.00600799 -0.01042869 -0.09482830  0.02097004  0.00017784
                   Z -0.08202563  0.12087919 -0.00748635 -0.00086490 -0.00062002
  2   C            X -0.00162930 -0.00230754  0.07448402  0.05482032  0.00035809
                   Y  0.01083997  0.01128726  0.07659967 -0.09925622 -0.00253335
                   Z -0.12169803 -0.13137860  0.00515460 -0.00954403  0.02738413
  3   C            X  0.00216466 -0.00226334  0.05726930 -0.08943016 -0.00202031
                   Y -0.00992904  0.01091927  0.12719731  0.03821492  0.00947932
                   Z  0.14189182 -0.12680395  0.00993606  0.00489899 -0.11084485
  4   C            X  0.00239743  0.00190373 -0.08875084 -0.12453265  0.00034404
                   Y -0.00297280 -0.00887142 -0.06367101  0.03782207 -0.00107282
                   Z  0.08133773  0.10356280 -0.00390216  0.00544174  0.01363336
  5   H            X -0.00445622 -0.00577592  0.23070351  0.02035422  0.00693914
                   Y  0.03196421  0.02787940  0.06462804 -0.09653838 -0.03449434
                   Z -0.36784990 -0.32392477  0.00151071 -0.00895890  0.39849843
  6   H            X  0.00476406 -0.00328597  0.17102642 -0.23992433  0.00523026
                   Y -0.03078002  0.01541475  0.11549427  0.04742208 -0.02744213
                   Z  0.38522489 -0.17875899  0.00745439  0.00805144  0.31720757
  7   H            X -0.00015429  0.00371009 -0.34719594 -0.23633262 -0.00827107
                   Y  0.01812898 -0.01680739 -0.03622728  0.05055165  0.04054580
                   Z -0.16422962  0.19482050  0.00241286  0.00870539 -0.46625658
  8   H            X  0.00512391  0.00407286  0.00011848 -0.09228191  0.01055016
                   Y -0.01780186 -0.01971909 -0.30737144 -0.05778967 -0.05137681
                   Z  0.27162717  0.23071623 -0.02579191 -0.00355537  0.59184693

 TRANS. SAYVETZ    X  0.01011837  0.00000217  0.00002605  0.00003694  0.00000059
                   Y  0.07287794  0.00003612 -0.00001404 -0.00001219 -0.00001447
                   Z  0.03213449  0.00026408 -0.00000813  0.00000209  0.00003411
               TOTAL  0.08028823  0.00026655  0.00003069  0.00003896  0.00003706

   ROT. SAYVETZ    X  1.99358102 -0.01822437  0.00276628  0.00050319  0.00040528
                   Y-13.54814255 -0.01737534 -0.00279407  0.00003054 -0.00046023
                   Z -0.86716948  0.00565798  0.01824538  0.00331305 -0.00118532
               TOTAL 13.72146183  0.02580781  0.01866421  0.00335119  0.00133456

                           11          12          13          14          15
       FREQUENCY:       928.96      991.85     1022.53     1043.31     1179.88  
        SYMMETRY:         A           A           A           A           A   
    REDUCED MASS:      1.57916     1.33934     1.63531     1.17283     2.00893
    IR INTENSITY:      0.51178     0.84684     0.19336     0.19322     0.86520

  1   O            X  0.02100890 -0.00012851  0.00060338  0.00042577  0.01836896
                   Y -0.02348060  0.00068206 -0.00292472 -0.00199005  0.01720011
                   Z -0.00240413 -0.00823220  0.03402350  0.02383729  0.00116033
  2   C            X  0.08405637  0.00060298 -0.00232759 -0.00199636 -0.09462185
                   Y  0.08662169 -0.00243645  0.01188687  0.00909186 -0.12390905
                   Z  0.00606182  0.02946053 -0.13698095 -0.10713188 -0.00901934
  3   C            X -0.06149533  0.00050497  0.00195102 -0.00030176  0.07513047
                   Y -0.04173535 -0.00288416 -0.01012801  0.00177239  0.10939049
                   Z -0.00276161  0.03259458  0.11622048 -0.01998767  0.00815514
  4   C            X -0.09593082 -0.00259083 -0.00055798 -0.00009577 -0.04667989
                   Y -0.04699179  0.01231495  0.00240589  0.00066412 -0.01499416
                   Z -0.00220640 -0.14255320 -0.02805205 -0.00716294 -0.00048628
  5   H            X  0.20278957 -0.00169182  0.00969225  0.00832140 -0.14470948
                   Y  0.07934550  0.00928827 -0.04512544 -0.03979173 -0.12533133
                   Z  0.00344981 -0.10666752  0.52430526  0.45999174 -0.00844529
  6   H            X  0.21615842  0.00036321 -0.00869386  0.01072409  0.58240201
                   Y -0.07010138 -0.00073436  0.04351664 -0.05172635  0.06857027
                   Z -0.00878818  0.00731863 -0.50560556  0.59967409 -0.00459999
  7   H            X  0.41402162  0.01050962 -0.00192847  0.00733303  0.17073213
                   Y -0.09435122 -0.04982861  0.01147800 -0.03752694 -0.03455350
                   Z -0.01590663  0.57341088 -0.13334244  0.43361067 -0.00620717
  8   H            X -0.29279148  0.01051614  0.00248127 -0.00463230 -0.11204903
                   Y  0.48280944 -0.05283456 -0.01304194  0.02335328  0.16974820
                   Z  0.04637644  0.61508153  0.15587462 -0.27268924  0.01691726

 TRANS. SAYVETZ    X  0.00000328  0.00000116 -0.00000034 -0.00000006  0.00001436
                   Y -0.00002117 -0.00000419 -0.00000121 -0.00000909  0.00000904
                   Z -0.00000012  0.00001563  0.00000706  0.00002377  0.00000009
               TOTAL  0.00002142  0.00001622  0.00000717  0.00002544  0.00001697

   ROT. SAYVETZ    X -0.00035359 -0.00029376  0.00104924  0.00006356  0.00021128
                   Y -0.00017404  0.00087670  0.00088034  0.00019895 -0.00050517
                   Z -0.00250850  0.00004856  0.00020879 -0.00098194  0.00090226
               TOTAL  0.00253926  0.00092588  0.00138546  0.00100391  0.00105542

                           16          17          18          19          20
       FREQUENCY:      1308.43     1410.56     1474.43     1699.68     1803.90  
        SYMMETRY:         A           A           A           A           A   
    REDUCED MASS:      1.48091     1.19638     1.22490     4.02180     9.42117
    IR INTENSITY:      0.05534     0.14374     0.22844     0.05635     4.99862

  1   O            X  0.00960880 -0.01489611 -0.03050477 -0.03085696 -0.12271291
                   Y -0.00525587  0.05084579  0.04131291  0.01688975  0.08087607
                   Z -0.00062807  0.00462722  0.00408417  0.00199079  0.00910244
  2   C            X  0.00760391 -0.03769834 -0.02908992  0.01318365  0.19441077
                   Y  0.01867456 -0.04540533 -0.04111810 -0.01432813 -0.11088977
                   Z  0.00151082 -0.00318439 -0.00299828 -0.00145819 -0.01294757
  3   C            X -0.05181384 -0.07571127  0.09214320  0.16128589 -0.03189528
                   Y -0.11470660  0.02428999 -0.02783435 -0.08770083  0.01648281
                   Z -0.00902002  0.00344284 -0.00401993 -0.01042485  0.00198124
  4   C            X -0.00159544  0.02444436  0.01053884 -0.14672162  0.00748960
                   Y  0.11166345 -0.00744422 -0.02367111  0.10310143 -0.00837666
                   Z  0.00970781 -0.00106241 -0.00223330  0.01151019 -0.00086020
  5   H            X  0.09162699  0.75926653  0.47595160  0.06887490 -0.14326645
                   Y  0.01009611 -0.10464217 -0.09204447 -0.02153547 -0.06702109
                   Z -0.00093240 -0.02281875 -0.01655112 -0.00306503 -0.00316494
  6   H            X  0.63899222  0.07313203 -0.18485278 -0.15027249  0.08510987
                   Y -0.18744502  0.01567475 -0.00519158 -0.08325473 -0.00022937
                   Z -0.02755426 -0.00007731  0.00269136 -0.00458054 -0.00146954
  7   H            X -0.39758809  0.30874045 -0.48321695  0.27730577 -0.01973393
                   Y  0.15689750 -0.05239985  0.04020289  0.07322316 -0.00290145
                   Z  0.02055294 -0.00998501  0.01196928  0.00144221  0.00009242
  8   H            X  0.05988073  0.15459251 -0.20001406 -0.03658674  0.00119224
                   Y -0.08226966 -0.32553367  0.50424430 -0.24925564  0.01043897
                   Z -0.00827835 -0.03098389  0.04722802 -0.02095344  0.00089697

 TRANS. SAYVETZ    X  0.00001381  0.00002562 -0.00001635 -0.00001124 -0.00001924
                   Y -0.00001506  0.00000470  0.00002412 -0.00000030  0.00002188
                   Z -0.00000158 -0.00000023  0.00000023 -0.00000104  0.00000072
               TOTAL  0.00002050  0.00002605  0.00002914  0.00001130  0.00002914

   ROT. SAYVETZ    X -0.00002976  0.00062646  0.00033370  0.00004260 -0.00011061
                   Y -0.00018921 -0.00066544 -0.00034625  0.00009738  0.00012506
                   Z  0.00079221  0.00271728  0.00166719 -0.00043500 -0.00042862
               TOTAL  0.00081504  0.00286686  0.00173516  0.00044780  0.00045999

                           21          22          23          24
       FREQUENCY:      2899.53     3159.22     3195.85     3247.91  
        SYMMETRY:         A           A           A           A   
    REDUCED MASS:      1.08414     1.05999     1.09402     1.11497
    IR INTENSITY:      2.51722     0.14986     0.06549     0.18865

  1   O            X  0.00187135  0.00053264 -0.00081534 -0.00009476
                   Y -0.00048248 -0.00012512  0.00042168  0.00007337
                   Z -0.00007403 -0.00002002  0.00005026  0.00000799
  2   C            X -0.01056998 -0.00126692  0.00273674  0.00043146
                   Y -0.07895464 -0.00088511 -0.00057841 -0.00014873
                   Z -0.00661894 -0.00005431 -0.00009691 -0.00002048
  3   C            X  0.00277667 -0.00618338 -0.00419251  0.00052542
                   Y -0.00016072 -0.00509612 -0.08172504 -0.01574518
                   Z -0.00005936 -0.00033024 -0.00698220 -0.00136939
  4   C            X -0.00087485  0.04026014  0.00307622 -0.06767434
                   Y  0.00080484 -0.05254874  0.02002479 -0.06240204
                   Z  0.00008621 -0.00526458  0.00168239 -0.00422298
  5   H            X  0.08054467  0.00361389  0.00055736  0.00337112
                   Y  0.95015554  0.01118868  0.00451004  0.00363341
                   Z  0.08043260  0.00090435  0.00038030  0.00026372
  6   H            X -0.00057586  0.01040995  0.08594609  0.01302226
                   Y -0.00667751  0.10407580  0.92646178  0.15826117
                   Z -0.00058278  0.00879787  0.07845705  0.01342709
  7   H            X -0.00735867  0.09429619 -0.01981986  0.04773661
                   Y -0.00978948  0.78506367 -0.16818655  0.50123142
                   Z -0.00071715  0.06642614 -0.01423302  0.04261968
  8   H            X  0.00090345 -0.50743741 -0.07303719  0.73176838
                   Y  0.00639724 -0.20143608 -0.02793848  0.26796370
                   Z  0.00053333 -0.00854747 -0.00114414  0.01039382

 TRANS. SAYVETZ    X  0.00000304 -0.00000290  0.00000067  0.00000101
                   Y -0.00000155 -0.00000006 -0.00000221 -0.00000230
                   Z  0.00000031 -0.00000004 -0.00000000 -0.00000020
               TOTAL  0.00000342  0.00000291  0.00000230  0.00000252

   ROT. SAYVETZ    X  0.00015214  0.00003124  0.00001235  0.00001729
                   Y -0.00013115 -0.00002505  0.00001708  0.00000162
                   Z  0.00047292  0.00010932 -0.00011924  0.00001768
               TOTAL  0.00051381  0.00011642  0.00012109  0.00002479

 REFERENCE ON SAYVETZ CONDITIONS - A. SAYVETZ, J.CHEM.PHYS., 7, 383-389(1939).

 NOTE - THE MODES J,K ARE ORTHONORMALIZED ACCORDING TO
 SUM ON I   M(I) * (X(I,J)*X(I,K) + Y(I,J)*Y(I,K) + Z(I,J)*Z(I,K)) = DELTA(J,K)

  MODE FREQ(CM**-1)  SYMMETRY  RED. MASS  IR INTENS.
     1       5.125    A        4.703009    0.083267
     2       4.036    A        2.773098    0.113733
     3       0.082    A        7.090833    0.000139
     4       0.007    A        7.001796    0.000001
     5       0.171    A        7.093792    0.000044
     6       4.433    A        2.295087    0.004175
     7     174.537    A        3.460724    0.093602
     8     320.841    A        2.700351    0.221579
     9     572.406    A        4.912067    0.137391
    10     610.809    A        1.180769    0.173649
    11     928.965    A        1.579156    0.511778
    12     991.850    A        1.339342    0.846841
    13    1022.532    A        1.635310    0.193359
    14    1043.310    A        1.172825    0.193224
    15    1179.877    A        2.008932    0.865195
    16    1308.434    A        1.480910    0.055340
    17    1410.565    A        1.196377    0.143745
    18    1474.429    A        1.224897    0.228439
    19    1699.677    A        4.021802    0.056352
    20    1803.898    A        9.421166    4.998619
    21    2899.534    A        1.084137    2.517219
    22    3159.223    A        1.059990    0.149857
    23    3195.848    A        1.094020    0.065494
    24    3247.912    A        1.114965    0.188646

     -------------------------------
     THERMOCHEMISTRY AT T=  298.15 K
     -------------------------------

 USING IDEAL GAS, RIGID ROTOR, HARMONIC NORMAL MODE APPROXIMATIONS.
 P=  1.01325E+05 PASCAL.
 ALL FREQUENCIES ARE SCALED BY   1.00000
 THE MOMENTS OF INERTIA ARE (IN AMU*BOHR**2)
             37.64555           390.06446           427.71000
 THE ROTATIONAL SYMMETRY NUMBER IS  1.0
 THE ROTATIONAL CONSTANTS ARE (IN GHZ)
     47.89645     4.62254     4.21568
      7 -     24 VIBRATIONAL MODES ARE USED IN THERMOCHEMISTRY.
 THE HARMONIC ZERO POINT ENERGY IS (SCALED BY   1.000)
        0.061612 HARTREE/MOLECULE    13522.323147 CM**-1/MOLECULE 
       38.662301 KCAL/MOL              161.763066 KJ/MOL

               Q               LN Q
 ELEC.     1.00000E+00       0.000000
 TRANS.    1.64832E+07      16.617850
 ROT.      2.83688E+04      10.253046
 VIB.      2.61850E+00       0.962601
 TOT.      1.22443E+12      27.833497

              E         H         G         CV        CP        S
           KJ/MOL    KJ/MOL    KJ/MOL   J/MOL-K   J/MOL-K   J/MOL-K
 ELEC.      0.000     0.000     0.000     0.000     0.000     0.000
 TRANS.     3.718     6.197   -41.195    12.472    20.786   158.954
 ROT.       3.718     3.718   -25.417    12.472    12.472    97.720
 VIB.     165.761   165.761   159.377    32.422    32.422    21.412
 TOTAL    173.198   175.677    92.765    57.365    65.679   278.086
 VIB. THERMAL CORRECTION E(T)-E(0) = H(T)-H(0) =      3997.883 J/MOL

              E         H         G         CV        CP        S
         KCAL/MOL  KCAL/MOL  KCAL/MOL CAL/MOL-K CAL/MOL-K CAL/MOL-K
 ELEC.      0.000     0.000     0.000     0.000     0.000     0.000
 TRANS.     0.889     1.481    -9.846     2.981     4.968    37.991
 ROT.       0.889     0.889    -6.075     2.981     2.981    23.356
 VIB.      39.618    39.618    38.092     7.749     7.749     5.118
 TOTAL     41.395    41.988    22.171    13.711    15.698    66.464
 VIB. THERMAL CORRECTION E(T)-E(0) = H(T)-H(0) =       955.517 CAL/MOL
 ......END OF NORMAL COORDINATE ANALYSIS......
 STEP CPU TIME =     0.01 TOTAL CPU TIME =        812.0 (     13.5 MIN)
 TOTAL WALL CLOCK TIME=        852.1 SECONDS, CPU UTILIZATION IS    95.30%
               1080583  WORDS OF DYNAMIC MEMORY USED
 EXECUTION OF GAMESS TERMINATED NORMALLY Tue Oct  4 21:28:10 2022
 DDI: 263640 bytes (0.3 MB / 0 MWords) used by master data server.

 ----------------------------------------
 CPU timing information for all processes
 ========================================
 0: 806.855 + 5.182 = 812.38
 ----------------------------------------
 ddikick.x: exited gracefully.
----- accounting info -----
Files used on the master node chemcompute-node-0.novalocal were:
-rw-r--r--. 1 chemcomp chemcomp     1021 Oct  4 21:13 /scratch/120797/460754.F05
-rw-rw-r--. 1 chemcomp chemcomp 70451200 Oct  4 21:28 /scratch/120797/460754.F10
-rw-rw-r--. 1 chemcomp chemcomp  4143136 Oct  4 21:27 /scratch/120797/460754.F22
Tue Oct  4 21:28:13 UTC 2022
0.095u 0.044s 14:15.68 0.0%	0+0k 8+216io 0pf+0w
Finishing Up...
Looking for IR data...
Looking for Raman data...
vibramans not found
Looking for thermodynamics data...
Looking for UV-Vis data...
chemcompute.org
{'UTCtimestamp': '2022-10-04T21:28:16.480852', 'cluster': 'jetstream2', 'clusterJobNumber': '120797', 'status': 'COMPLETE', 'nodeList': 'chemcompute-node-0'}
120797
